# LAMMPS data file written by OVITO Basic 3.1.1
2 atoms
2 atom types
0.0 2.69839 xlo xhi
0.0 2.69839 ylo yhi
0.0 3.72663 zlo zhi

Atoms  # atomic

1 1 0.0 0.0 0.0
2 2 1.349197 1.349197 1.863315
