# LAMMPS data file written by OVITO Basic 3.1.1
4 atoms
2 atom types
0.0 3.93 xlo xhi
0.0 3.93 ylo yhi
0.0 3.8514 zlo zhi
0.0 0.0 0.0 xy xz yz

Atoms #  atomic

1 1 0.0 0.0 0.0
2 1 1.965 1.965 0.0
3 2 0.0 1.965 1.9257
4 2 1.965 0.0 1.9257
