# LAMMPS data file written by OVITO Basic 3.1.1
4 atoms
2 atom types
0.0 3.803 xlo xhi
0.0 3.803 ylo yhi
0.0 3.701 zlo zhi
0.0 0.0 0.0 xy xz yz

Atoms #  atomic

1 1 0.0 0.0 0.0
2 1 1.9 1.9 0.0
3 2 0.0 1.9 1.85
4 2 1.9 0.0 1.85
