LAMMPS (7 Aug 2019)
# Compute elastic constant tensor for a crystal
#
# Written by Aidan Thompson (Sandia, athomps@sandia.gov)
#
#  This script uses the following three include files.
#
#   init.mod      (must be modified for different crystal structures)
# 	       	  Define units, deformation parameters and initial
#		  configuration of the atoms and simulation cell.
#
#
#   potential.mod    (must be modified for different pair styles)
# 		     Define pair style and other attributes
#		     not stored in restart file
#
#
#   displace.mod    (displace.mod should not need to be modified)
# 		    Perform positive and negative box displacements
# 		    in direction ${dir} and size ${up}.
# 		    It uses the resultant changes
#		    in stress to compute one
# 		    row of the elastic stiffness tensor
#
#		    Inputs variables:
#		    	   dir = the Voigt deformation component
#		    		    (1,2,3,4,5,6)
#		    Global constants:
#       	    	   up = the deformation magnitude (strain units)
#       		   cfac = conversion from LAMMPS pressure units to
#               	   output units for elastic constants
#
#
#  To run this on a different system, it should only be necessary to
#  modify the files init.mod and potential.mod. In order to calculate
#  the elastic constants correctly, care must be taken to specify
#  the correct units in init.mod (units, cfac and cunits). It is also
#  important to verify that the minimization of energy w.r.t atom
#  positions in the deformed cell is fully converged.
#  One indication of this is that the elastic constants are insensitive
#  to the choice of the variable ${up} in init.mod. Another is to check
#  the final max and two-norm forces reported in the log file. If you know
#  that minimization is not required, you can set maxiter = 0.0 in
#  init.mod.
#

include init.mod
# NOTE: This script can be modified for different atomic structures,
# units, etc. See in.elastic for more info.
#

# Define the finite deformation size. Try several values of this
# variable to verify that results do not depend on it.
variable up equal 1.0e-6

# Define the amount of random jiggle for atoms
# This prevents atoms from staying on saddle points
variable atomjiggle equal 1.0e-5

# Uncomment one of these blocks, depending on what units
# you are using in LAMMPS and for output

# metal units, elastic constants in eV/A^3
#units		metal
#variable cfac equal 6.2414e-7
#variable cunits string eV/A^3

# metal units, elastic constants in GPa
units		metal
variable cfac equal 1.0e-4
variable cunits string GPa

# real units, elastic constants in GPa
#units		real
#variable cfac equal 1.01325e-4
#variable cunits string GPa

# Define minimization parameters
variable etol equal 0.0
variable ftol equal 1.0e-25
variable maxiter equal 5000
variable maxeval equal 10000
variable dmax equal 1.0e-2

# generate the box and atom positions using fcc lattice
variable a equal 4.0 #3.615

boundary	p p p

lattice         fcc $a
lattice         fcc 4
Lattice spacing in x,y,z = 4 4 4
region		box prism 0.0 1.0 0.0 1.0 0.0 1.0 0.0 0.0 0.0 #units lattice
create_box	1 box
Created triclinic box = (0 0 0) to (4 4 4) with tilt (0 0 0)
  1 by 1 by 1 MPI processor grid
#lattice	        fcc $a orient x 1 0 0 orient y 0 1 0 orient z 0 0 1
create_atoms	1 box
Created 4 atoms
  create_atoms CPU = 0.00234215 secs

# Need to set mass to something, just to satisfy LAMMPS
mass 1 195.084 #Au

include potential.mod
# NOTE: This script can be modified for different pair styles
# See in.elastic for more info.

### Choose potential ###
pair_style	smatb
#pair_coeff 1 1 2.7662 10.7960 3.1976 0.1993 2.2318 4.8745 5.6286
#pair_coeff  id1 id2 atomDiameter p q A Xi cut_start cut_end
pair_coeff 1 1 2.885 10.295370 4.02006 0.205932 1.80239 4.08000612 5.770

# Setup neighbor style
#neighbor 1.0 nsq
#neigh_modify once no every 1 delay 0 check yes

# Setup minimization style
min_style	     cg
min_modify	     dmax ${dmax} line quadratic
min_modify	     dmax 0.01 line quadratic

# Setup output
thermo		1
thermo_style custom step temp pe press pxx pyy pzz pxy pxz pyz lx ly lz vol
thermo_modify norm no

# Compute initial state
fix 3 all box/relax  aniso 0.0
minimize ${etol} ${ftol} ${maxiter} ${maxeval}
minimize 0 ${ftol} ${maxiter} ${maxeval}
minimize 0 1e-25 ${maxiter} ${maxeval}
minimize 0 1e-25 5000 ${maxeval}
minimize 0 1e-25 5000 10000
WARNING: Using 'neigh_modify every 1 delay 0 check yes' setting during minimization (src/min.cpp:168)
Neighbor list info ...
  update every 1 steps, delay 0 steps, check yes
  max neighbors/atom: 2000, page size: 100000
  master list distance cutoff = 7.77
  ghost atom cutoff = 7.77
  binsize = 3.885, bins = 2 2 2
  1 neighbor lists, perpetual/occasional/extra = 1 0 0
  (1) pair smatb, perpetual
      attributes: half, newton on
      pair build: half/bin/newton/tri
      stencil: half/bin/3d/newton/tri
      bin: standard
Per MPI rank memory allocation (min/avg/max) = 4.084 | 4.084 | 4.084 Mbytes
Step Temp PotEng Press Pxx Pyy Pzz Pxy Pxz Pyz Lx Ly Lz Volume 
       0            0   -15.099691    120095.26    120095.26    120095.26    120095.26 -8.2945725e-12 -2.8227603e-12 -3.2570311e-12            4            4            4           64 
       1            0   -15.101126    119398.63    119398.63    119398.63    119398.63 -2.344359e-12 -2.4225043e-11 -1.4543709e-11       4.0004       4.0004       4.0004    64.019202 
       2            0   -15.102553    118703.19    118703.19    118703.19    118703.19 6.9007646e-12 3.1335547e-11 2.3219554e-11       4.0008       4.0008       4.0008    64.038408 
       3            0   -15.103972    118008.95    118008.95    118008.95    118008.95 7.4757559e-11 6.6557223e-11 6.5559298e-11       4.0012       4.0012       4.0012    64.057617 
       4            0   -15.105383     117315.9     117315.9     117315.9     117315.9 -4.207376e-12 -2.8887757e-11 -1.938863e-11       4.0016       4.0016       4.0016    64.076831 
       5            0   -15.106786    116624.03    116624.03    116624.03    116624.03 1.8775748e-11 3.3822364e-12 1.0103347e-11        4.002        4.002        4.002    64.096048 
       6            0   -15.108181    115933.36    115933.36    115933.36    115933.36 7.499378e-12 1.3871682e-11 -1.0837252e-12       4.0024       4.0024       4.0024    64.115269 
       7            0   -15.109568    115243.88    115243.88    115243.88    115243.88 2.7171679e-11 3.0075192e-11 1.5037596e-11       4.0028       4.0028       4.0028    64.134494 
       8            0   -15.110947    114555.58    114555.58    114555.58    114555.58 -1.8195669e-12 -8.4479894e-12 -5.5886699e-12       4.0032       4.0032       4.0032    64.153723 
       9            0   -15.112318    113868.47    113868.47    113868.47    113868.47 2.9840617e-11 2.5033202e-11 2.5639543e-11       4.0036       4.0036       4.0036    64.172956 
      10            0   -15.113681    113182.54    113182.54    113182.54    113182.54 6.8842325e-12 -6.494559e-13 7.5769855e-12        4.004        4.004        4.004    64.192192 
      11            0   -15.115036    112497.79    112497.79    112497.79    112497.79 7.1418743e-12 2.8091372e-11 4.1682575e-11       4.0044       4.0044       4.0044    64.211432 
      12            0   -15.116383    111814.22    111814.22    111814.22    111814.22 -2.0597052e-11 -2.8991649e-12 -9.4331037e-12       4.0048       4.0048       4.0048    64.230677 
      13            0   -15.117722    111131.83    111131.83    111131.83    111131.83 -4.5421063e-12 2.1585819e-11 1.8817297e-11       4.0052       4.0052       4.0052    64.249925 
      14            0   -15.119054    110450.61    110450.61    110450.61    110450.61 -5.7386376e-11 -5.6780943e-11 -6.3181233e-11       4.0056       4.0056       4.0056    64.269176 
      15            0   -15.120377    109770.57    109770.57    109770.57    109770.57 9.0787712e-12 -4.7555468e-13 7.435946e-12        4.006        4.006        4.006    64.288432 
      16            0   -15.121692     109091.7     109091.7     109091.7     109091.7 -4.7584445e-11 -1.3873394e-11 -1.9362245e-11       4.0064       4.0064       4.0064    64.307692 
      17            0      -15.123       108414       108414       108414       108414 1.0283112e-11 -1.2486636e-11 -1.3221144e-11       4.0068       4.0068       4.0068    64.326955 
      18            0     -15.1243    107737.47    107737.47    107737.47    107737.47 -1.3389959e-11 -2.4058733e-11 -2.1683095e-11       4.0072       4.0072       4.0072    64.346222 
      19            0   -15.125591     107062.1     107062.1     107062.1     107062.1 5.4839215e-12 9.3269846e-12 6.1748093e-12       4.0076       4.0076       4.0076    64.365494 
      20            0   -15.126875    106387.91    106387.91    106387.91    106387.91 -5.7412851e-11 -4.3383395e-11 -2.9094934e-11        4.008        4.008        4.008    64.384769 
      21            0   -15.128151    105714.87    105714.87    105714.87    105714.87 1.2946391e-13 9.7529476e-12 1.0918123e-11       4.0084       4.0084       4.0084    64.404047 
      22            0    -15.12942       105043       105043       105043       105043 1.4452476e-11 1.9629482e-11 8.3694935e-12       4.0088       4.0088       4.0088     64.42333 
      23            0    -15.13068     104372.3     104372.3     104372.3     104372.3 -6.6849651e-12 -1.5138211e-11 -1.410312e-11       4.0092       4.0092       4.0092    64.442616 
      24            0   -15.131933    103702.75    103702.75    103702.75    103702.75 3.9106122e-11 1.8927881e-11 3.8373152e-11       4.0096       4.0096       4.0096    64.461907 
      25            0   -15.133178    103034.35    103034.35    103034.35    103034.35 5.301669e-12 2.7025581e-11 2.4698019e-11         4.01         4.01         4.01    64.481201 
      26            0   -15.134415    102367.12    102367.12    102367.12    102367.12 1.5684798e-11 4.140959e-11 4.2616112e-11       4.0104       4.0104       4.0104    64.500499 
      27            0   -15.135644    101701.04    101701.04    101701.04    101701.04 5.1692655e-13 1.9513977e-11 1.9427823e-11       4.0108       4.0108       4.0108    64.519801 
      28            0   -15.136865    101036.11    101036.11    101036.11    101036.11 1.8948304e-11 3.5312748e-12 -3.0575672e-12       4.0112       4.0112       4.0112    64.539107 
      29            0   -15.138079    100372.33    100372.33    100372.33    100372.33 2.2386752e-12 -5.5105851e-12 5.4244822e-12       4.0116       4.0116       4.0116    64.558416 
      30            0   -15.139285    99709.698    99709.698    99709.698    99709.698 2.0142051e-11 2.0959784e-11 4.6524695e-11        4.012        4.012        4.012     64.57773 
      31            0   -15.140483    99048.217    99048.217    99048.217    99048.217 7.615549e-12 2.8483014e-11 2.5471215e-11       4.0124       4.0124       4.0124    64.597047 
      32            0   -15.141674    98387.881    98387.881    98387.881    98387.881 1.0667183e-11 1.3247953e-11 -3.4410268e-13       4.0128       4.0128       4.0128    64.616368 
      33            0   -15.142856     97728.69     97728.69     97728.69     97728.69 -6.1360964e-11 -5.112697e-11 -5.082597e-11       4.0132       4.0132       4.0132    64.635693 
      34            0   -15.144031    97070.642    97070.642    97070.642    97070.642 -3.7398794e-12 -1.925823e-11 -1.9086281e-11       4.0136       4.0136       4.0136    64.655022 
      35            0   -15.145199    96413.735    96413.735    96413.735    96413.735 -8.4444441e-11 -7.0134009e-11  -6.1797e-11        4.014        4.014        4.014    64.674355 
      36            0   -15.146358    95757.968    95757.968    95757.968    95757.968 1.5466113e-12 2.6206469e-12 1.387654e-11       4.0144       4.0144       4.0144    64.693691 
      37            0    -15.14751    95103.339    95103.339    95103.339    95103.339 -4.2476151e-11 -4.161718e-11 -5.0035102e-11       4.0148       4.0148       4.0148    64.713032 
      38            0   -15.148655    94449.846    94449.846    94449.846    94449.846 -8.1577927e-13 -3.3103464e-11 -3.1300163e-11       4.0152       4.0152       4.0152    64.732376 
      39            0   -15.149791    93797.487    93797.487    93797.487    93797.487 -4.730106e-11 -5.9748707e-11 -6.3483001e-11       4.0156       4.0156       4.0156    64.751724 
      40            0    -15.15092    93146.262    93146.262    93146.262    93146.262 -5.1492117e-13 5.3637622e-12 4.7201107e-12        4.016        4.016        4.016    64.771076 
      41            0   -15.152042    92496.168    92496.168    92496.168    92496.168 -1.8059754e-11 -1.355554e-11 -2.410827e-11       4.0164       4.0164       4.0164    64.790432 
      42            0   -15.153155    91847.204    91847.204    91847.204    91847.204 -1.2436495e-12 1.3079762e-11 6.3897852e-12       4.0168       4.0168       4.0168    64.809792 
      43            0   -15.154262    91199.368    91199.368    91199.368    91199.368 5.4361259e-11 4.1499762e-11 4.5786928e-11       4.0172       4.0172       4.0172    64.829155 
      44            0    -15.15536    90552.658    90552.658    90552.658    90552.658 -8.5717703e-14 4.2001674e-12 -1.7572129e-12       4.0176       4.0176       4.0176    64.848523 
      45            0   -15.156451    89907.074    89907.074    89907.074    89907.074 4.7473426e-11 5.1843724e-11 5.2700645e-11        4.018        4.018        4.018    64.867894 
      46            0   -15.157534    89262.613    89262.613    89262.613    89262.613 5.8681565e-12 -4.2833259e-12 5.0114913e-12       4.0184       4.0184       4.0184    64.887269 
      47            0    -15.15861    88619.274    88619.274    88619.274    88619.274 3.5027145e-11 3.4127915e-11 3.7682014e-11       4.0188       4.0188       4.0188    64.906648 
      48            0   -15.159678    87977.055    87977.055    87977.055    87977.055 -2.2259997e-12 2.9965381e-12 4.2807687e-12       4.0192       4.0192       4.0192    64.926031 
      49            0   -15.160739    87335.954    87335.954    87335.954    87335.954 5.4306739e-11 6.7016826e-11 7.1981036e-11       4.0196       4.0196       4.0196    64.945417 
      50            0   -15.161792    86695.971    86695.971    86695.971    86695.971 6.0750632e-12 1.1978998e-12 3.3797887e-12         4.02         4.02         4.02    64.964808 
      51            0   -15.162838    86057.103    86057.103    86057.103    86057.103 5.1066624e-11 7.1424843e-11 6.5950364e-11       4.0204       4.0204       4.0204    64.984202 
      52            0   -15.163876    85419.349    85419.349    85419.349    85419.349 -3.8053377e-11 -4.2970387e-11 -3.159713e-11       4.0208       4.0208       4.0208    65.003601 
      53            0   -15.164906    84782.707    84782.707    84782.707    84782.707 5.4712122e-12 7.2664537e-13 -9.403646e-13       4.0212       4.0212       4.0212    65.023003 
      54            0   -15.165929    84147.175    84147.175    84147.175    84147.175 -7.0378109e-11 -5.3841177e-11 -7.4736681e-11       4.0216       4.0216       4.0216    65.042409 
      55            0   -15.166945    83512.753    83512.753    83512.753    83512.753 -4.6990179e-13 1.0508713e-11 5.2970747e-12        4.022        4.022        4.022    65.061819 
      56            0   -15.167953    82879.438    82879.438    82879.438    82879.438 -6.1795006e-11 -6.4698987e-11 -7.6912789e-11       4.0224       4.0224       4.0224    65.081232 
      57            0   -15.168954    82247.229    82247.229    82247.229    82247.229 -2.0919503e-12 3.756972e-12 2.5615718e-13       4.0228       4.0228       4.0228     65.10065 
      58            0   -15.169947    81616.124    81616.124    81616.124    81616.124 -8.1732451e-11 -6.0648466e-11 -7.7805879e-11       4.0232       4.0232       4.0232    65.120071 
      59            0   -15.170933    80986.122    80986.122    80986.122    80986.122 -1.4080243e-12 -2.8160486e-12 -8.8321525e-12       4.0236       4.0236       4.0236    65.139497 
      60            0   -15.171911    80357.221    80357.221    80357.221    80357.221 -2.7213686e-11 -2.1284686e-11 -1.5526304e-11        4.024        4.024        4.024    65.158926 
      61            0   -15.172882    79729.419    79729.419    79729.419    79729.419 1.4071848e-12 9.9782194e-12 1.9785871e-11       4.0244       4.0244       4.0244    65.178359 
      62            0   -15.173845    79102.716    79102.716    79102.716    79102.716 -3.4188659e-11 -3.0479914e-11 -3.3677108e-11       4.0248       4.0248       4.0248    65.197796 
      63            0   -15.174801    78477.109    78477.109    78477.109    78477.109 -3.8354889e-12 5.2844514e-12 1.5469805e-11       4.0252       4.0252       4.0252    65.217236 
      64            0    -15.17575    77852.597    77852.597    77852.597    77852.597 7.3236003e-11 5.7600393e-11 5.3851255e-11       4.0256       4.0256       4.0256    65.236681 
      65            0   -15.176691    77229.178    77229.178    77229.178    77229.178 2.9387889e-12 -2.7258332e-12 -8.8589579e-12        4.026        4.026        4.026     65.25613 
      66            0   -15.177625    76606.851    76606.851    76606.851    76606.851 4.8709748e-11 4.5346051e-11 4.9731631e-11       4.0264       4.0264       4.0264    65.275582 
      67            0   -15.178552    75985.614    75985.614    75985.614    75985.614 1.7026306e-13 -1.7409398e-11 -1.5025715e-11       4.0268       4.0268       4.0268    65.295038 
      68            0   -15.179471    75365.465    75365.465    75365.465    75365.465 5.1446676e-11 5.7063683e-11 6.3531751e-11       4.0272       4.0272       4.0272    65.314498 
      69            0   -15.180382    74746.404    74746.404    74746.404    74746.404 4.9772273e-12 1.3825632e-11 1.467644e-11       4.0276       4.0276       4.0276    65.333962 
      70            0   -15.181287    74128.428    74128.428    74128.428    74128.428  4.70782e-11 5.4520553e-11 5.2606805e-11        4.028        4.028        4.028     65.35343 
      71            0   -15.182184    73511.536    73511.536    73511.536    73511.536 1.4455122e-12 9.1407391e-12 9.4808596e-12       4.0284       4.0284       4.0284    65.372902 
      72            0   -15.183074    72895.726    72895.726    72895.726    72895.726 4.7815204e-11 4.7305175e-11 4.173736e-11       4.0288       4.0288       4.0288    65.392377 
      73            0   -15.183956    72280.997    72280.997    72280.997    72280.997 -2.2094668e-12 9.4752134e-12 6.5859107e-12       4.0292       4.0292       4.0292    65.411857 
      74            0   -15.184832    71667.348    71667.348    71667.348    71667.348 -5.0972513e-13 -4.6300033e-12 -8.2830334e-12       4.0296       4.0296       4.0296     65.43134 
      75            0     -15.1857    71054.776    71054.776    71054.776    71054.776 -3.4523596e-11 -3.7071462e-11 -3.8727576e-11         4.03         4.03         4.03    65.450827 
      76            0    -15.18656     70443.28     70443.28     70443.28     70443.28 2.3348493e-12 1.1334632e-11 5.7309937e-12       4.0304       4.0304       4.0304    65.470318 
      77            0   -15.187414     69832.86     69832.86     69832.86     69832.86 -3.6370367e-11 -3.5648901e-11 -3.5394266e-11       4.0308       4.0308       4.0308    65.489813 
      78            0    -15.18826    69223.512    69223.512    69223.512    69223.512 1.4000757e-12 1.2600681e-11 1.4552302e-11       4.0312       4.0312       4.0312    65.509312 
      79            0   -15.189099    68615.236    68615.236    68615.236    68615.236 -1.3190726e-11 -1.8025911e-11 -2.2521786e-11       4.0316       4.0316       4.0316    65.528814 
      80            0   -15.189931    68008.029    68008.029    68008.029    68008.029 -1.8232554e-12 -4.7065429e-12 -7.0386137e-12        4.032        4.032        4.032    65.548321 
      81            0   -15.190755    67401.892    67401.892    67401.892    67401.892 -4.1964784e-12 6.3583006e-13 -7.841904e-12       4.0324       4.0324       4.0324    65.567831 
      82            0   -15.191572    66796.821    66796.821    66796.821    66796.821 1.440786e-12 1.1653416e-11 3.0510762e-12       4.0328       4.0328       4.0328    65.587345 
      83            0   -15.192382    66192.816    66192.816    66192.816    66192.816 -7.1340053e-11 -7.1806051e-11 -7.4305494e-11       4.0332       4.0332       4.0332    65.606863 
      84            0   -15.193185    65589.875    65589.875    65589.875    65589.875 1.9481391e-12 6.4373292e-12 4.3621375e-12       4.0336       4.0336       4.0336    65.626385 
      85            0   -15.193981    64987.996    64987.996    64987.996    64987.996 1.3632917e-11 1.0499887e-11 7.1128265e-12        4.034        4.034        4.034    65.645911 
      86            0   -15.194769    64387.178    64387.178    64387.178    64387.178 3.9786121e-12 -1.9046547e-12 -6.983734e-12       4.0344       4.0344       4.0344    65.665441 
      87            0   -15.195551     63787.42     63787.42     63787.42     63787.42 3.1861745e-11 1.9633266e-11 2.2510555e-11       4.0348       4.0348       4.0348    65.684975 
      88            0   -15.196325    63188.719    63188.719    63188.719    63188.719 3.8070443e-13 -1.1801837e-11 -1.5270478e-11       4.0352       4.0352       4.0352    65.704512 
      89            0   -15.197092    62591.075    62591.075    62591.075    62591.075 1.4462467e-11 1.9325577e-11 1.4589331e-11       4.0356       4.0356       4.0356    65.724053 
      90            0   -15.197852    61994.485    61994.485    61994.485    61994.485 -5.0730412e-13 -8.877822e-12 -7.7786631e-12        4.036        4.036        4.036    65.743599 
      91            0   -15.198605    61398.949    61398.949    61398.949    61398.949 1.3228249e-11 3.0851827e-12 9.0019713e-12       4.0364       4.0364       4.0364    65.763148 
      92            0    -15.19935    60804.465    60804.465    60804.465    60804.465 6.7600343e-12 2.8730146e-12 -8.7035441e-12       4.0368       4.0368       4.0368    65.782701 
      93            0   -15.200089    60211.031    60211.031    60211.031    60211.031 5.5542519e-11 6.9058569e-11 6.9692134e-11       4.0372       4.0372       4.0372    65.802258 
      94            0    -15.20082    59618.645    59618.645    59618.645    59618.645 -4.011385e-12 -2.9979825e-12 1.7312293e-12       4.0376       4.0376       4.0376    65.821818 
      95            0   -15.201545    59027.307    59027.307    59027.307    59027.307 6.7540093e-13 1.4183419e-11 1.5787497e-11        4.038        4.038        4.038    65.841383 
      96            0   -15.202262    58437.015    58437.015    58437.015    58437.015 -2.1142208e-11 -2.5320009e-11 -2.637501e-11       4.0384       4.0384       4.0384    65.860951 
      97            0   -15.202972    57847.767    57847.767    57847.767    57847.767            0 3.2906233e-12 -9.2812453e-13       4.0388       4.0388       4.0388    65.880524 
      98            0   -15.203676    57259.562    57259.562    57259.562    57259.562 -3.6270454e-12 4.3861944e-12 4.2174946e-14       4.0392       4.0392       4.0392      65.9001 
      99            0   -15.204372    56672.399    56672.399    56672.399    56672.399 -7.2097737e-12 -9.1070826e-12 -8.6011335e-12       4.0396       4.0396       4.0396     65.91968 
     100            0   -15.205061    56086.275    56086.275    56086.275    56086.275 -3.9283704e-11 -3.7682008e-11 -3.7682008e-11         4.04         4.04         4.04    65.939264 
     101            0   -15.205743    55501.189    55501.189    55501.189    55501.189 -1.3905335e-12 -9.9444216e-12 -1.0365795e-11       4.0404       4.0404       4.0404    65.958852 
     102            0   -15.206418     54917.14     54917.14     54917.14     54917.14 -1.8324317e-11 -1.8450692e-11 -1.2890209e-11       4.0408       4.0408       4.0408    65.978444 
     103            0   -15.207086    54334.127    54334.127    54334.127    54334.127 2.1477304e-12 -6.1905169e-12 1.4739326e-12       4.0412       4.0412       4.0412    65.998039 
     104            0   -15.207747    53752.147    53752.147    53752.147    53752.147 -3.4395584e-11 -4.8288537e-11 -4.5088947e-11       4.0416       4.0416       4.0416    66.017639 
     105            0   -15.208402      53171.2      53171.2      53171.2      53171.2 2.9461152e-13 6.1868419e-12 3.745775e-12        4.042        4.042        4.042    66.037242 
     106            0   -15.209049    52591.284    52591.284    52591.284    52591.284 3.3407445e-11 2.2257605e-11 1.9691038e-11       4.0424       4.0424       4.0424    66.056849 
     107            0   -15.209689    52012.397    52012.397    52012.397    52012.397 -1.2618714e-13 -2.8181795e-12 -1.0515595e-11       4.0428       4.0428       4.0428     66.07646 
     108            0   -15.210322    51434.538    51434.538    51434.538    51434.538 2.6869884e-11 3.2336371e-11 2.9266729e-11       4.0432       4.0432       4.0432    66.096076 
     109            0   -15.210948    50857.706    50857.706    50857.706    50857.706 1.4713097e-12 6.7259871e-13 2.101871e-13       4.0436       4.0436       4.0436    66.115694 
     110            0   -15.211568    50281.899    50281.899    50281.899    50281.899 1.7482378e-11 2.0256024e-11 1.5002906e-11        4.044        4.044        4.044    66.135317 
     111            0    -15.21218    49707.115    49707.115    49707.115    49707.115 2.7308111e-12 9.8729326e-12 4.6213727e-12       4.0444       4.0444       4.0444    66.154944 
     112            0   -15.212786    49133.353    49133.353    49133.353    49133.353 1.1970005e-11 9.1140035e-12 9.2400035e-12       4.0448       4.0448       4.0448    66.174574 
     113            0   -15.213384    48560.612    48560.612    48560.612    48560.612 2.3513033e-12 1.2512292e-11 1.4359745e-11       4.0452       4.0452       4.0452    66.194209 
     114            0   -15.213976     47988.89     47988.89     47988.89     47988.89 2.5143088e-11 2.7997395e-11 2.6276416e-11       4.0456       4.0456       4.0456    66.213847 
     115            0   -15.214561    47418.186    47418.186    47418.186    47418.186 1.7204689e-12 -2.4757968e-12 5.874772e-13        4.046        4.046        4.046    66.233489 
     116            0   -15.215139    46848.498    46848.498    46848.498    46848.498 -4.0691707e-12 -2.0136103e-12 2.2653115e-11       4.0464       4.0464       4.0464    66.253135 
     117            0    -15.21571    46279.824    46279.824    46279.824    46279.824 -4.4957295e-11 -4.4663731e-11 -4.4579855e-11       4.0468       4.0468       4.0468    66.272785 
     118            0   -15.216274    45712.164    45712.164    45712.164    45712.164 -1.1739096e-12 5.8695479e-13 -2.9347739e-13       4.0472       4.0472       4.0472    66.292439 
     119            0   -15.216832    45145.516    45145.516    45145.516    45145.516 -2.9255214e-11 -3.3278853e-11 -3.1308946e-11       4.0476       4.0476       4.0476    66.312097 
     120            0   -15.217382    44579.878    44579.878    44579.878    44579.878 -1.7179201e-12 6.5364764e-12 7.5420882e-12        4.048        4.048        4.048    66.331759 
     121            0   -15.217926    44015.249    44015.249    44015.249    44015.249 -3.9374787e-11 -4.4485132e-11 -4.1888071e-11       4.0484       4.0484       4.0484    66.351424 
     122            0   -15.218463    43451.628    43451.628    43451.628    43451.628 -8.3751315e-13 -8.3751315e-14 -2.8056691e-12       4.0488       4.0488       4.0488    66.371093 
     123            0   -15.218993    42889.013    42889.013    42889.013    42889.013 -5.4003591e-11 -4.793342e-11 -4.9440497e-11       4.0492       4.0492       4.0492    66.390767 
     124            0   -15.219516    42327.402    42327.402    42327.402    42327.402 1.9669897e-12 6.0265217e-12 1.1006772e-11       4.0496       4.0496       4.0496    66.410444 
     125            0   -15.220033    41766.795    41766.795    41766.795    41766.795 -4.4725299e-11 -4.3009922e-11 -3.9411816e-11         4.05         4.05         4.05    66.430125 
     126            0   -15.220542    41207.189    41207.189    41207.189    41207.189 -5.0191262e-13 1.0623817e-11 9.6199919e-12       4.0504       4.0504       4.0504     66.44981 
     127            0   -15.221045    40648.584    40648.584    40648.584    40648.584 3.1025738e-11 1.9903303e-11 1.4718409e-11       4.0508       4.0508       4.0508    66.469499 
     128            0   -15.221542    40090.977    40090.977    40090.977    40090.977 -2.4662754e-12 -2.9260895e-12 2.5916792e-12       4.0512       4.0512       4.0512    66.489191 
     129            0   -15.222031    39534.368    39534.368    39534.368    39534.368 2.6494162e-11 2.1730227e-11 2.5700173e-11       4.0516       4.0516       4.0516    66.508888 
     130            0   -15.222514    38978.755    38978.755    38978.755    38978.755 -3.3421219e-13 -2.7572506e-12 5.4309481e-13        4.052        4.052        4.052    66.528589 
     131            0    -15.22299    38424.136    38424.136    38424.136    38424.136 4.9782872e-11 4.8279363e-11 5.4502222e-11       4.0524       4.0524       4.0524    66.548293 
     132            0   -15.223459     37870.51     37870.51     37870.51     37870.51 -1.1690501e-12 -8.2668544e-12 -7.1813078e-12       4.0528       4.0528       4.0528    66.568001 
     133            0   -15.223921    37317.877    37317.877    37317.877    37317.877 5.3969083e-11 6.2275229e-11 6.2483926e-11       4.0532       4.0532       4.0532    66.587713 
     134            0   -15.224377    36766.233    36766.233    36766.233    36766.233 1.5856288e-12 6.2590612e-12 2.4201703e-12       4.0536       4.0536       4.0536     66.60743 
     135            0   -15.224826    36215.579    36215.579    36215.579    36215.579 1.288985e-11 1.9105344e-11 1.6352172e-11        4.054        4.054        4.054    66.627149 
     136            0   -15.225269    35665.911    35665.911    35665.911    35665.911 4.5872617e-13 4.1702379e-14 1.9183094e-12       4.0544       4.0544       4.0544    66.646873 
     137            0   -15.225705     35117.23     35117.23     35117.23     35117.23 3.8396526e-11 3.1434289e-11 3.0350348e-11       4.0548       4.0548       4.0548    66.666601 
     138            0   -15.226134    34569.534    34569.534    34569.534    34569.534 -4.6387284e-11 -4.1844414e-11 -3.9093686e-11       4.0552       4.0552       4.0552    66.686333 
     139            0   -15.226556     34022.82     34022.82     34022.82     34022.82 2.2082647e-12 8.833059e-12 9.2913781e-12       4.0556       4.0556       4.0556    66.706068 
     140            0   -15.226972    33477.089    33477.089    33477.089    33477.089 -3.9070558e-11 -5.385739e-11 -4.8859024e-11        4.056        4.056        4.056    66.725808 
     141            0   -15.227381    32932.337    32932.337    32932.337    32932.337 -4.1640726e-13 -3.2063359e-12 -4.4139169e-12       4.0564       4.0564       4.0564    66.745551 
     142            0   -15.227784    32388.565    32388.565    32388.565    32388.565 -6.8770133e-11 -6.7229882e-11 -6.9477816e-11       4.0568       4.0568       4.0568    66.765298 
     143            0    -15.22818     31845.77     31845.77     31845.77     31845.77 -1.5397956e-12 2.954743e-12 2.9131269e-13       4.0572       4.0572       4.0572    66.785049 
     144            0   -15.228569    31303.952    31303.952    31303.952    31303.952 -9.3192494e-12 -4.7844361e-12 -2.4546237e-12       4.0576       4.0576       4.0576    66.804804 
     145            0   -15.228952    30763.108    30763.108    30763.108    30763.108 -8.3182981e-13 2.4954894e-12 -3.3273192e-12        4.058        4.058        4.058    66.824563 
     146            0   -15.229328    30223.237    30223.237    30223.237    30223.237 -3.3388093e-11 -3.405336e-11 -3.0311232e-11       4.0584       4.0584       4.0584    66.844326 
     147            0   -15.229697    29684.339    29684.339    29684.339    29684.339 -4.7801937e-12 3.3253522e-13 7.8145776e-12       4.0588       4.0588       4.0588    66.864093 
     148            0    -15.23006    29146.411    29146.411    29146.411    29146.411 -6.1874822e-11 -5.6015621e-11 -5.9007553e-11       4.0592       4.0592       4.0592    66.883863 
     149            0   -15.230417    28609.452    28609.452    28609.452    28609.452 2.243286e-12 -6.6467733e-12 -2.5756246e-12       4.0596       4.0596       4.0596    66.903638 
     150            0   -15.230767    28073.461    28073.461    28073.461    28073.461 -2.99847e-11 -2.4668853e-11 -2.5333334e-11         4.06         4.06         4.06    66.923416 
     151            0    -15.23111    27538.436    27538.436    27538.436    27538.436 -1.0379446e-12 4.9406162e-12 6.0615963e-12       4.0604       4.0604       4.0604    66.943198 
     152            0   -15.231447    27004.377    27004.377    27004.377    27004.377 3.3910006e-11 2.7269124e-11 3.1170642e-11       4.0608       4.0608       4.0608    66.962984 
     153            0   -15.231777    26471.281    26471.281    26471.281    26471.281 2.0746626e-13 1.8671964e-12 2.6140749e-12       4.0612       4.0612       4.0612    66.982775 
     154            0   -15.232101    25939.147    25939.147    25939.147    25939.147 3.8328439e-11 3.1774442e-11 3.3641087e-11       4.0616       4.0616       4.0616    67.002568 
     155            0   -15.232418    25407.974    25407.974    25407.974    25407.974 -5.3909364e-13 7.0496861e-13 -3.7321867e-13        4.062        4.062        4.062    67.022366 
     156            0   -15.232729     24877.76     24877.76     24877.76     24877.76 3.4367433e-11  3.19215e-11 2.9351197e-11       4.0624       4.0624       4.0624    67.042168 
     157            0   -15.233033    24348.504    24348.504    24348.504    24348.504 1.7406585e-12 -1.65777e-13 2.983986e-12       4.0628       4.0628       4.0628    67.061974 
     158            0   -15.233331    23820.205    23820.205    23820.205    23820.205 1.8147221e-11 1.3258244e-11 1.607562e-11       4.0632       4.0632       4.0632    67.081783 
     159            0   -15.233622    23292.862    23292.862    23292.862    23292.862 1.0354944e-12 2.4023471e-12 5.7159293e-12       4.0636       4.0636       4.0636    67.101597 
     160            0   -15.233907    22766.472    22766.472    22766.472    22766.472 3.8219167e-11 3.8881688e-11 3.9544208e-11        4.064        4.064        4.064    67.121414 
     161            0   -15.234185    22241.035    22241.035    22241.035    22241.035 2.4837194e-13 5.1330202e-12 3.7255792e-12       4.0644       4.0644       4.0644    67.141235 
     162            0   -15.234457    21716.549    21716.549    21716.549    21716.549 -3.7244794e-13 -5.3384205e-12 1.506345e-11       4.0648       4.0648       4.0648    67.161061 
     163            0   -15.234723    21193.013    21193.013    21193.013    21193.013 -3.1110909e-11 -2.8504543e-11 -2.74289e-11       4.0652       4.0652       4.0652     67.18089 
     164            0   -15.234982    20670.426    20670.426    20670.426    20670.426 -4.5494548e-13 -8.6439641e-12 -5.9142912e-12       4.0656       4.0656       4.0656    67.200723 
     165            0   -15.235235    20148.785    20148.785    20148.785    20148.785 -9.3029569e-12 -1.0667391e-11 -1.1701052e-11        4.066        4.066        4.066    67.220559 
     166            0   -15.235481     19628.09     19628.09     19628.09     19628.09 -1.2400282e-12 -2.3147194e-12 -3.5960819e-12       4.0664       4.0664       4.0664      67.2404 
     167            0   -15.235721     19108.34     19108.34     19108.34     19108.34 -3.7974991e-11 -5.008236e-11 -3.4627903e-11       4.0668       4.0668       4.0668    67.260245 
     168            0   -15.235954    18589.533    18589.533    18589.533    18589.533 -4.1309889e-14 1.4045362e-12 2.3546637e-12       4.0672       4.0672       4.0672    67.280094 
     169            0   -15.236181    18071.667    18071.667    18071.667    18071.667 9.5810671e-12 9.870151e-12 1.1109082e-11       4.0676       4.0676       4.0676    67.299946 
     170            0   -15.236402    17554.742    17554.742    17554.742    17554.742 -2.1881327e-12 5.7386876e-12 6.646969e-12        4.068        4.068        4.068    67.319802 
     171            0   -15.236617    17038.755    17038.755    17038.755    17038.755 -2.2617794e-11 -1.9150832e-11 -9.7405096e-12       4.0684       4.0684       4.0684    67.339663 
     172            0   -15.236825    16523.706    16523.706    16523.706    16523.706 -7.8396231e-13 -7.3857502e-12 -4.0023339e-12       4.0688       4.0688       4.0688    67.359527 
     173            0   -15.237026    16009.594    16009.594    16009.594    16009.594 3.6917862e-11 3.6340376e-11 3.576289e-11       4.0692       4.0692       4.0692    67.379395 
     174            0   -15.237222    15496.416    15496.416    15496.416    15496.416 9.0721061e-13 3.7113161e-12 1.072158e-12       4.0696       4.0696       4.0696    67.399267 
     175            0   -15.237411    14984.172    14984.172    14984.172    14984.172 1.6118853e-11 1.2449856e-11 1.2862103e-11         4.07         4.07         4.07    67.419143 
     176            0   -15.237594     14472.86     14472.86     14472.86     14472.86 -1.8545641e-12 -8.2425073e-14 2.0606268e-13       4.0704       4.0704       4.0704    67.439023 
     177            0    -15.23777    13962.479    13962.479    13962.479    13962.479 2.2495412e-11 2.4720233e-11 2.5997445e-11       4.0708       4.0708       4.0708    67.458907 
     178            0    -15.23794    13453.027    13453.027    13453.027    13453.027 -2.0594123e-13 2.1417888e-12 3.2126832e-12       4.0712       4.0712       4.0712    67.478794 
     179            0   -15.238104    12944.504    12944.504    12944.504    12944.504 4.8052518e-11 4.3893731e-11 4.3152561e-11       4.0716       4.0716       4.0716    67.498686 
     180            0   -15.238262    12436.907    12436.907    12436.907    12436.907 -2.3875105e-12 -4.1987254e-12 -3.0049702e-12        4.072        4.072        4.072    67.518581 
     181            0   -15.238413    11930.236    11930.236    11930.236    11930.236 3.6666295e-11 3.3168388e-11 1.9588279e-11       4.0724       4.0724       4.0724    67.538481 
     182            0   -15.238558     11424.49     11424.49     11424.49     11424.49 1.1107725e-12 -1.5633095e-12 -4.2785312e-12       4.0728       4.0728       4.0728    67.558384 
     183            0   -15.238697    10919.666    10919.666    10919.666    10919.666 -8.3900312e-12 4.9353125e-13 6.4159062e-12       4.0732       4.0732       4.0732    67.578291 
     184            0   -15.238829    10415.763    10415.763    10415.763    10415.763 -1.7391852e-11 -3.819629e-11 -3.8566329e-11       4.0736       4.0736       4.0736    67.598202 
     185            0   -15.238956    9912.7811    9912.7811    9912.7811    9912.7811 -7.8096423e-13 1.4386183e-12 3.4115806e-12        4.074        4.074        4.074    67.618117 
     186            0   -15.239076    9410.7178    9410.7178    9410.7178    9410.7178 -3.1229369e-11 -2.7448972e-11 -2.7613337e-11       4.0744       4.0744       4.0744    67.638036 
     187            0    -15.23919    8909.5721    8909.5721    8909.5721    8909.5721 3.2863341e-13 8.2158351e-13 9.9000814e-12       4.0748       4.0748       4.0748    67.657959 
     188            0   -15.239297    8409.3426    8409.3426    8409.3426    8409.3426 -2.1437016e-11 -2.0862077e-11 -2.2669028e-11       4.0752       4.0752       4.0752    67.677886 
     189            0   -15.239399     7910.028     7910.028     7910.028     7910.028 9.4426477e-13 3.6949491e-13 1.1084847e-12       4.0756       4.0756       4.0756    67.697816 
     190            0   -15.239494     7411.627     7411.627     7411.627     7411.627 -3.0618007e-11 -1.596569e-11 -1.5842561e-11        4.076        4.076        4.076    67.717751 
     191            0   -15.239583    6914.1382    6914.1382    6914.1382    6914.1382 -1.2719555e-12 -8.2061647e-13 -9.8473977e-13       4.0764       4.0764       4.0764    67.737689 
     192            0   -15.239666    6417.5605    6417.5605    6417.5605    6417.5605 -2.9164329e-11 -9.8444994e-13 -4.1018747e-14       4.0768       4.0768       4.0768    67.757632 
     193            0   -15.239743    5921.8924    5921.8924    5921.8924    5921.8924 1.9683204e-12 3.4035541e-12 3.4855675e-12       4.0772       4.0772       4.0772    67.777578 
     194            0   -15.239814    5427.1326    5427.1326    5427.1326    5427.1326 -1.734072e-11 4.1322566e-11 2.6482518e-11       4.0776       4.0776       4.0776    67.797528 
     195            0   -15.239878    4933.2799    4933.2799    4933.2799    4933.2799 8.1965095e-14 1.8032321e-12 2.1310925e-12        4.078        4.078        4.078    67.817483 
     196            0   -15.239937    4440.3329    4440.3329    4440.3329    4440.3329 1.0652327e-12 3.7897703e-11 3.7815762e-11       4.0784       4.0784       4.0784    67.837441 
     197            0   -15.239989    3948.2904    3948.2904    3948.2904    3948.2904 1.4335453e-13 1.5359414e-12 1.6178583e-12       4.0788       4.0788       4.0788    67.857403 
     198            0   -15.240035    3457.1509    3457.1509    3457.1509    3457.1509 4.4652038e-11 6.6537883e-12 7.0223058e-12       4.0792       4.0792       4.0792    67.877368 
     199            0   -15.240075    2966.9133    2966.9133    2966.9133    2966.9133 -1.0438258e-12 -1.3098991e-12 -7.3681824e-13       4.0796       4.0796       4.0796    67.897338 
     200            0   -15.240109    2477.5762    2477.5762    2477.5762    2477.5762 5.7291232e-13 6.2488365e-11 6.2856666e-11         4.08         4.08         4.08    67.917312 
     201            0   -15.240137    1989.1288    1989.1288    1989.1288    1989.1288 -3.6819247e-13 -4.5001302e-13 -7.4865803e-12       4.0804       4.0804       4.0804     67.93729 
     202            0   -15.240159      1501.56      1501.56      1501.56      1501.56 3.0980421e-11 2.120574e-11 2.2228197e-11       4.0808       4.0808       4.0808    67.957271 
     203            0   -15.240174    1014.8682    1014.8682    1014.8682    1014.8682 -3.67976e-13 -2.0443111e-14 8.1772443e-14       4.0812       4.0812       4.0812    67.977257 
     204            0   -15.240184    529.05232    529.05232    529.05232    529.05232 2.3747912e-11 2.7508338e-11 2.7610524e-11       4.0816       4.0816       4.0816    67.997246 
     205            0   -15.240188    44.111019    44.111019    44.111019    44.111019 2.0431094e-13 -1.4301766e-13 -6.9465719e-13        4.082        4.082        4.082    68.017239 
     206            0   -15.240188 -0.028282782 -0.028282782 -0.028282782 -0.028282782 1.1645412e-12 5.9248585e-13 1.1032495e-12    4.0820364    4.0820364    4.0820364    68.019061 
     207            0   -15.240188 -2.3335885e-07 -2.3340294e-07 -2.3335105e-07 -2.3332257e-07 2.2085421e-11 5.1995742e-11 -1.5731521e-12    4.0820364    4.0820364    4.0820364     68.01906 
     208            0   -15.240188 -6.694954e-10 -6.5557539e-10 -6.5553453e-10 -6.9737629e-10 3.6774984e-13 -4.2904148e-13 -2.2473602e-13    4.0820364    4.0820364    4.0820364     68.01906 
     209            0   -15.240188 -2.7531524e-10 -3.094002e-10 -3.1007441e-10 -2.0647111e-10 -2.8602766e-13 -4.2904148e-13            0    4.0820364    4.0820364    4.0820364     68.01906 
     210            0   -15.240188 -8.3138705e-11 -6.6828319e-11 -9.9803222e-11 -8.2784576e-11 2.9256543e-11 3.0666251e-11 3.099314e-11    4.0820364    4.0820364    4.0820364     68.01906 
     211            0   -15.240188 -1.9395399e-11 -4.7603174e-11 -1.2626078e-11 2.0430547e-12 5.2220478e-11 2.165638e-11 3.0482376e-11    4.0820364    4.0820364    4.0820364     68.01906 
     212            0   -15.240188 -5.3956393e-10 -6.3616637e-10 -6.041517e-10 -3.7837373e-10 -6.0699155e-11 4.0861094e-13 1.6344438e-13    4.0820364    4.0820364    4.0820364     68.01906 
     213            0   -15.240188 4.1693298e-10 4.0628186e-10 4.057098e-10 4.3880729e-10 8.5808297e-13 4.0861094e-14 -6.9463859e-13    4.0820364    4.0820364    4.0820364     68.01906 
     214            0   -15.240188 4.2304852e-10 4.1706918e-10 4.0472913e-10 4.4734725e-10 4.4947203e-13 -6.8442332e-12 -6.537775e-13    4.0820364    4.0820364    4.0820364     68.01906 
     215            0   -15.240188 -6.5027026e-10 -7.0334201e-10 -7.0336244e-10 -5.4410632e-10 -6.0719585e-11 1.082819e-12 9.602357e-13    4.0820364    4.0820364    4.0820364     68.01906 
     216            0   -15.240188 4.1715091e-10 4.0628186e-10 4.057098e-10 4.3946106e-10 8.5808297e-13 4.0861094e-14 -6.9463859e-13    4.0820364    4.0820364    4.0820364     68.01906 
     217            0   -15.240188 -1.965691e-10 -2.0455064e-10 -2.6939719e-10 -1.1575948e-10 -7.0485387e-12 -2.2126282e-11 -2.1349921e-11    4.0820364    4.0820364    4.0820364     68.01906 
     218            0   -15.240188 4.1803623e-10 4.0824319e-10 4.057098e-10 4.401557e-10 6.9463859e-13 -1.4301383e-13 -1.1441106e-12    4.0820364    4.0820364    4.0820364     68.01906 
     219            0   -15.240188 -6.2825975e-10 -7.0170756e-10 -6.4092669e-10 -5.4214499e-10 -9.0629906e-11 -2.9644724e-11 -2.9767307e-11    4.0820364    4.0820364    4.0820364     68.01906 
     220            0   -15.240188 4.6599353e-10 4.6600034e-10 4.6175079e-10 4.7022947e-10 1.0215273e-13 1.4914299e-12 1.1645412e-12    4.0820364    4.0820364    4.0820364     68.01906 
     221            0   -15.240188 4.1760038e-10 4.0628186e-10 4.057098e-10 4.4080948e-10 6.9463859e-13 1.8387492e-13 -1.307555e-12    4.0820364    4.0820364    4.0820364     68.01906 
     222            0   -15.240188 -2.3828147e-10 -2.994301e-10 -3.3083185e-10 -8.4582464e-11 -5.2445214e-11 -6.7420805e-13 5.1076367e-13    4.0820364    4.0820364    4.0820364     68.01906 
     223            0   -15.240188 4.1432468e-10 4.0530119e-10 4.0474956e-10 4.3292329e-10 7.1506914e-13 -3.064582e-13 -7.5593023e-13    4.0820364    4.0820364    4.0820364     68.01906 
     224            0   -15.240188 -4.6716488e-10 -5.3685348e-10 -5.3440181e-10 -3.3023936e-10 -5.9473322e-11 3.1136153e-11 2.9828598e-11    4.0820364    4.0820364    4.0820364     68.01906 
     225            0   -15.240188 4.1645627e-10 4.0693563e-10 4.0669047e-10 4.357427e-10 8.5808297e-13 -4.0861094e-13 -1.0623884e-12    4.0820364    4.0820364    4.0820364     68.01906 
     226            0   -15.240188 -1.7016602e-10 -2.7554679e-10 -1.8448784e-10 -5.0463451e-11 -6.0474419e-11 3.2178111e-11 4.2904148e-13    4.0820364    4.0820364    4.0820364     68.01906 
     227            0   -15.240188 4.0242048e-10 4.0464741e-10 4.0311512e-10 3.9949891e-10 8.1722188e-13 -4.0861094e-13 -8.1722188e-13    4.0820364    4.0820364    4.0820364     68.01906 
     228            0   -15.240188 -1.0238224e-09 -1.016481e-09 -1.0820426e-09 -9.729435e-10 -1.0215273e-13 -2.1431644e-11 -4.3557926e-11    4.0820364    4.0820364    4.0820364     68.01906 
     229            0   -15.240188 6.0741378e-10 5.887675e-10 6.300372e-10 6.0343663e-10 5.7205531e-13 -7.395858e-12 -2.9971612e-11    4.0820364    4.0820364    4.0820364     68.01906 
     230            0   -15.240188 4.8545703e-10 4.5786899e-10 4.8124153e-10 5.1726059e-10 -3.064582e-13 -1.0419579e-12 1.940902e-12    4.0820364    4.0820364    4.0820364     68.01906 
     231            0   -15.240188 -4.8077844e-10 -5.2514678e-10 -4.2072625e-10 -4.9646229e-10 -3.0441515e-11 -2.9644724e-11 1.3892772e-12    4.0820364    4.0820364    4.0820364     68.01906 
     232            0   -15.240188 4.8545703e-10 4.5786899e-10 4.8124153e-10 5.1726059e-10 -3.064582e-13 -1.3688466e-12 1.940902e-12    4.0820364    4.0820364    4.0820364     68.01906 
     233            0   -15.240188 -3.1768819e-10 -3.4292673e-10 -2.666595e-10 -3.4347835e-10 -1.4301383e-13 9.1937461e-13 2.1247769e-12    4.0820364    4.0820364    4.0820364     68.01906 
     234            0   -15.240188 4.0220256e-10 4.0399363e-10 4.0311512e-10 3.9949891e-10 8.1722188e-13 -2.4516656e-13 -8.1722188e-13    4.0820364    4.0820364    4.0820364     68.01906 
     235            0   -15.240188 -3.1768819e-10 -3.4292673e-10 -2.666595e-10 -3.4347835e-10 -1.8387492e-13 9.1937461e-13 2.1247769e-12    4.0820364    4.0820364    4.0820364     68.01906 
     236            0   -15.240188 4.0220256e-10 4.0399363e-10 4.0311512e-10 3.9949891e-10 8.1722188e-13 -2.4516656e-13 -4.9033313e-13    4.0820364    4.0820364    4.0820364     68.01906 
     237            0   -15.240188 -3.6953411e-10 -4.6595948e-10 -2.8817286e-10 -3.5446999e-10 -7.8657605e-12 -2.9726446e-11 -6.0290544e-11    4.0820364    4.0820364    4.0820364     68.01906 
     238            0   -15.240188 2.7606436e-10 2.8061356e-10 2.5137745e-10 2.9620207e-10 -6.1291641e-14 -1.5731521e-12 -1.4097077e-12    4.0820364    4.0820364    4.0820364     68.01906 
     239            0   -15.240188 -1.9653505e-10 -2.6974451e-10 -1.0873137e-10 -2.1112927e-10 -6.1291641e-13 1.8387492e-13 -6.0801308e-11    4.0820364    4.0820364    4.0820364     68.01906 
     240            0   -15.240188 2.1531753e-10 2.7791673e-10 1.605841e-10 2.0745177e-10 -8.1722188e-14 -1.2666939e-12 -1.9000409e-12    4.0820364    4.0820364    4.0820364     68.01906 
     241            0   -15.240188 2.6631218e-10 2.8118562e-10 2.519495e-10 2.6580141e-10 1.2258328e-13 -1.5118605e-12 -5.7675434e-11    4.0820364    4.0820364    4.0820364     68.01906 
     242            0   -15.240188 -5.6389671e-10 -6.3835244e-10 -5.0212155e-10 -5.5121615e-10 -3.1810361e-11 -2.7867266e-11 -2.6866169e-11    4.0820364    4.0820364    4.0820364     68.01906 
     243            0   -15.240188 4.0280185e-10 4.0333986e-10 4.0425923e-10 4.0080647e-10 4.9033313e-13 -2.4516656e-13 -1.1441106e-12    4.0820364    4.0820364    4.0820364     68.01906 
     244            0   -15.240188 -1.9653505e-10 -2.6974451e-10 -1.0873137e-10 -2.1112927e-10 -6.1291641e-13 2.0430547e-14 -6.0637863e-11    4.0820364    4.0820364    4.0820364     68.01906 
     245            0   -15.240188 2.6631218e-10 2.8118562e-10 2.519495e-10 2.6580141e-10 -2.0430547e-13 -1.8387492e-12 -5.7675434e-11    4.0820364    4.0820364    4.0820364     68.01906 
     246            0   -15.240188 3.490627e-10 3.4454074e-10 3.4441816e-10 3.5822921e-10 1.8387492e-13 -1.532291e-12 -2.8623196e-11    4.0820364    4.0820364    4.0820364     68.01906 
     247            0   -15.240188 -3.5923712e-10 -4.1986817e-10 -2.0293662e-10 -4.5490656e-10 -7.5593023e-13 -5.1689284e-11 2.913396e-11    4.0820364    4.0820364    4.0820364     68.01906 
     248            0   -15.240188 4.3066231e-10 4.0824319e-10 4.3488462e-10 4.4885911e-10 8.5808297e-13 -9.8066625e-13 7.5593023e-13    4.0820364    4.0820364    4.0820364     68.01906 
     249            0   -15.240188 -3.0849445e-10 -3.6104862e-10 -2.3076303e-10 -3.3367169e-10 -3.064582e-11 -2.278006e-11 -7.1506914e-13    4.0820364    4.0820364    4.0820364     68.01906 
     250            0   -15.240188 4.3066231e-10 4.0824319e-10 4.3488462e-10 4.4885911e-10 8.5808297e-13 -9.8066625e-13 7.5593023e-13    4.0820364    4.0820364    4.0820364     68.01906 
     251            0   -15.240188 -5.8985713e-10 -6.4762791e-10 -4.4749027e-10 -6.7445321e-10 -5.5162477e-13 -7.7636078e-13 6.6399277e-12    4.0820364    4.0820364    4.0820364     68.01906 
     252            0   -15.240188 4.3044438e-10 4.0758941e-10 4.3488462e-10 4.4885911e-10 5.3119422e-13 -8.1722188e-13 7.5593023e-13    4.0820364    4.0820364    4.0820364     68.01906 
     253            0   -15.240188 -3.1166118e-10 -3.4725801e-10 -2.3934386e-10 -3.4838169e-10 -3.8818039e-13 -3.064582e-13 3.2688875e-13    4.0820364    4.0820364    4.0820364     68.01906 
     254            0   -15.240188 4.3055334e-10 4.0758941e-10 4.3521151e-10 4.4885911e-10 5.3119422e-13 -8.1722188e-13 1.082819e-12    4.0820364    4.0820364    4.0820364     68.01906 
     255            0   -15.240188 -1.3381327e-10 -1.1872191e-10 -4.3476204e-11 -2.392417e-10 2.8602766e-13 -2.0430547e-13 2.9215682e-12    4.0820364    4.0820364    4.0820364     68.01906 
     256            0   -15.240188 -1.3381327e-10 -1.1872191e-10 -4.3476204e-11 -2.392417e-10 -4.0861094e-14 -2.0430547e-13 2.5946795e-12    4.0820364    4.0820364    4.0820364     68.01906 
     257            0   -15.240188  4.34333e-10 4.0889697e-10 4.4328158e-10 4.5082045e-10 8.5808297e-13 -4.0861094e-13 3.3506097e-12    4.0820364    4.0820364    4.0820364     68.01906 
     258            0   -15.240188 -1.103018e-09 -1.0923396e-09 -1.080449e-09 -1.1362653e-09 -4.519237e-11 -5.2465644e-11 1.1441106e-12    4.0820364    4.0820364    4.0820364     68.01906 
     259            0   -15.240188 1.5003717e-09 1.4987849e-09 1.4976612e-09 1.5046689e-09 3.0523237e-11 2.6804878e-11 2.5824211e-11    4.0820364    4.0820364    4.0820364     68.01906 
     260            0   -15.240188 -1.2341344e-09 -1.2493484e-09 -1.2257511e-09 -1.2273038e-09 -3.0114626e-11 -3.0012473e-11 -5.30377e-11    4.0820364    4.0820364    4.0820364     68.01906 
     261            0   -15.240188 1.3924984e-09 1.3621863e-09 1.4622347e-09 1.3530743e-09 -5.7205531e-13 -4.0861094e-14 -1.1032495e-12    4.0820364    4.0820364    4.0820364     68.01906 
     262            0   -15.240188 -6.7990136e-10 -7.6091529e-10 -7.5780984e-10 -5.2097895e-10 -2.9563001e-11 -6.0290544e-11 -5.9330308e-11    4.0820364    4.0820364    4.0820364     68.01906 
     263            0   -15.240188 -1.9559525e-10 -2.1057765e-10 -4.4783759e-11 -3.3142433e-10 3.064582e-13 -4.0861094e-14 2.9624293e-12    4.0820364    4.0820364    4.0820364     68.01906 
     264            0   -15.240188 4.3411507e-10 4.0824319e-10 4.4328158e-10 4.5082045e-10 6.9463859e-13 -2.4516656e-13 3.6774984e-12    4.0820364    4.0820364    4.0820364     68.01906 
     265            0   -15.240188 -1.0487613e-09 -1.0086765e-09 -1.0083701e-09 -1.1292372e-09 -5.7205531e-13 1.6344438e-13 4.9033313e-13    4.0820364    4.0820364    4.0820364     68.01906 
     266            0   -15.240188 8.8527603e-10 8.6656165e-10 8.6654122e-10 9.2272522e-10 3.0584529e-11 2.1084324e-11 2.1145616e-11    4.0820364    4.0820364    4.0820364     68.01906 
     267            0   -15.240188 4.2688266e-10 4.0971419e-10 4.6403901e-10 4.0689477e-10 3.064582e-13 -8.9894406e-13 3.2688875e-13    4.0820364    4.0820364    4.0820364     68.01906 
     268            0   -15.240188 -7.0118318e-10 -7.3521366e-10 -7.4884083e-10 -6.1949504e-10 -6.0842169e-11 -2.9644724e-11 -5.9984086e-11    4.0820364    4.0820364    4.0820364     68.01906 
     269            0   -15.240188 4.1627239e-10 4.0595497e-10 4.4074819e-10 4.0211402e-10 4.9033313e-13 -3.2688875e-13 3.5753457e-12    4.0820364    4.0820364    4.0820364     68.01906 
     270            0   -15.240188 -3.0948192e-10 -3.3546958e-10 -3.3465236e-10 -2.5832383e-10 -5.5162477e-13 8.1722188e-13 9.3980516e-13    4.0820364    4.0820364    4.0820364     68.01906 
     271            0   -15.240188 4.1621791e-10 4.0595497e-10 4.4058474e-10 4.0211402e-10 8.1722188e-13 -3.2688875e-13 3.5753457e-12    4.0820364    4.0820364    4.0820364     68.01906 
     272            0   -15.240188 -2.5791522e-10 -3.0204521e-10 -3.027807e-10 -1.6891976e-10 4.0861094e-14 -4.0861094e-14 8.9894406e-13    4.0820364    4.0820364    4.0820364     68.01906 
     273            0   -15.240188 4.1708961e-10 4.0595497e-10 4.4058474e-10 4.0472913e-10 8.1722188e-13 -4.9033313e-13 3.248457e-12    4.0820364    4.0820364    4.0820364     68.01906 
     274            0   -15.240188 -5.0460727e-10 -5.1873159e-10 -5.7904256e-10 -4.1604766e-10 6.537775e-13 8.1722188e-13 6.537775e-13    4.0820364    4.0820364    4.0820364     68.01906 
     275            0   -15.240188 4.171441e-10 4.0595497e-10 4.4074819e-10 4.0472913e-10 6.537775e-13 -3.2688875e-13 3.248457e-12    4.0820364    4.0820364    4.0820364     68.01906 
     276            0   -15.240188 -2.5791522e-10 -3.0204521e-10 -3.027807e-10 -1.6891976e-10 4.0861094e-14 -4.0861094e-14 5.7205531e-13    4.0820364    4.0820364    4.0820364     68.01906 
     277            0   -15.240188 4.3103687e-10 4.0824319e-10 4.4328158e-10 4.4158584e-10 6.9463859e-13 -3.8818039e-13 3.289318e-12    4.0820364    4.0820364    4.0820364     68.01906 
     278            0   -15.240188 4.108583e-11 -3.3403944e-11 -3.4772791e-11 1.9143422e-10 5.7205531e-13 3.2688875e-13 5.5162477e-13    4.0820364    4.0820364    4.0820364     68.01906 
     279            0   -15.240188 4.4623038e-10 4.145358e-10 4.6908536e-10   4.5507e-10 5.1076367e-13 -1.4097077e-12 6.7420805e-13    4.0820364    4.0820364    4.0820364     68.01906 
     280            0   -15.240188 -3.4080876e-10 -1.9827846e-10 -3.6335728e-10 -4.6079055e-10 -4.9033313e-13 -8.7851352e-13 7.1506914e-13    4.0820364    4.0820364    4.0820364     68.01906 
     281            0   -15.240188 -7.0565066e-10 -6.3283619e-10 -6.0355922e-10 -8.8055657e-10 -4.0861094e-14 -3.064582e-13 2.0634852e-12    4.0820364    4.0820364    4.0820364     68.01906 
     282            0   -15.240188 5.2276321e-10 5.3180714e-10 5.2759844e-10 5.0888406e-10 2.9992043e-11 5.1076367e-13 1.4301383e-13    4.0820364    4.0820364    4.0820364     68.01906 
     283            0   -15.240188 -3.213725e-10 -2.6533151e-10 -2.3550291e-10 -4.6328308e-10 4.9033313e-13 7.3549969e-13 3.4527624e-12    4.0820364    4.0820364    4.0820364     68.01906 
     284            0   -15.240188 2.5293017e-11 6.0270113e-11 5.8799114e-11 -4.3190176e-11 7.4367191e-12 -1.1032495e-12 -1.0623884e-12    4.0820364    4.0820364    4.0820364     68.01906 
     285            0   -15.240188 4.3264407e-10 4.0824319e-10 4.4328158e-10 4.4640745e-10 6.9463859e-13 -1.6344438e-13 3.5140541e-12    4.0820364    4.0820364    4.0820364     68.01906 
     286            0   -15.240188 -2.9052238e-10 -3.3091357e-10 -3.2968774e-10 -2.1096583e-10 -6.7420805e-13 1.0419579e-12 1.2054023e-12    4.0820364    4.0820364    4.0820364     68.01906 
     287            0   -15.240188 -2.907403e-10 -3.3091357e-10 -3.2968774e-10 -2.116196e-10 -5.1076367e-13 6.7420805e-13 1.2054023e-12    4.0820364    4.0820364    4.0820364     68.01906 
     288            0   -15.240188 2.800347e-11 3.6938429e-11 7.8248995e-11 -3.1177015e-11 1.2258328e-13 -1.3688466e-12 5.3875352e-11    4.0820364    4.0820364    4.0820364     68.01906 
     289            0   -15.240188 1.1061098e-10 1.2985656e-10 1.7100368e-10 3.0972709e-11 3.0114626e-11 -1.3484161e-12 5.5489365e-11    4.0820364    4.0820364    4.0820364     68.01906 
     290            0   -15.240188 -1.0011581e-09 -9.9061593e-10 -1.0286372e-09 -9.8422117e-10 -4.0861094e-13 1.8387492e-13 -6.6807888e-12    4.0820364    4.0820364    4.0820364     68.01906 
     291            0   -15.240188 3.5796361e-10 3.4780963e-10 3.7823071e-10 3.4785049e-10 4.4947203e-13 -2.839846e-11 2.1860685e-12    4.0820364    4.0820364    4.0820364     68.01906 
     292            0   -15.240188 4.2635146e-10 4.3496634e-10 4.4140197e-10 4.0268608e-10 -2.8602766e-13 1.0419579e-12 2.2677907e-12    4.0820364    4.0820364    4.0820364     68.01906 
     293            0   -15.240188 3.8518391e-11 1.6328093e-10 -2.4353212e-11 -2.3372546e-11 -6.1291641e-14 -9.3980516e-13 1.0215273e-12    4.0820364    4.0820364    4.0820364     68.01906 
     294            0   -15.240188 -1.4487982e-10 -2.3960945e-10 -1.1841545e-10 -7.6614551e-11 4.4947203e-13 7.5593023e-13 3.064582e-13    4.0820364    4.0820364    4.0820364     68.01906 
     295            0   -15.240188 4.259769e-11 -2.167681e-11 -2.2718768e-11 1.7218865e-10 -3.6774984e-13 -1.2258328e-13 6.7420805e-13    4.0820364    4.0820364    4.0820364     68.01906 
     296            0   -15.240188 3.0784748e-10 4.0052044e-10 3.2288436e-10 2.0013764e-10 3.0686681e-11 3.1626487e-11 2.2698338e-11    4.0820364    4.0820364    4.0820364     68.01906 
     297            0   -15.240188 -1.6856563e-10 -1.2027463e-10 -1.4499559e-10 -2.4042668e-10 -3.064582e-13 -5.7205531e-13 1.8387492e-13    4.0820364    4.0820364    4.0820364     68.01906 
     298            0   -15.240188 -1.3184513e-11 3.5733026e-11 -3.4793221e-11 -4.0493344e-11 8.1722188e-14 7.5593023e-13 8.5808297e-13    4.0820364    4.0820364    4.0820364     68.01906 
     299            0   -15.240188 -5.7662494e-10 -5.7236177e-10 -4.1277877e-10 -7.4473429e-10 1.1849717e-12 -5.5162477e-13 2.2371449e-11    4.0820364    4.0820364    4.0820364     68.01906 
     300            0   -15.240188 2.7311555e-10 3.7949741e-10 2.5691413e-10 1.8293512e-10 2.2473602e-13 6.537775e-13 5.9534614e-11    4.0820364    4.0820364    4.0820364     68.01906 
     301            0   -15.240188 2.735514e-10 3.7949741e-10 2.575679e-10 1.8358889e-10 3.8818039e-13 9.8066625e-13 5.9534614e-11    4.0820364    4.0820364    4.0820364     68.01906 
     302            0   -15.240188 -3.4000516e-10 -2.9838814e-10 -2.6667993e-10 -4.5494742e-10 4.0861094e-14 6.1291641e-14 3.7183595e-12    4.0820364    4.0820364    4.0820364     68.01906 
     303            0   -15.240188 -2.286723e-10 -1.9989247e-10 -1.4636444e-10 -3.3975999e-10 -9.8066625e-13 -1.0215273e-13 6.0780877e-11    4.0820364    4.0820364    4.0820364     68.01906 
     304            0   -15.240188 6.1708424e-10 6.0880987e-10 6.7806942e-10 5.6437343e-10 -1.8387492e-13 2.2473602e-13 -2.8602766e-13    4.0820364    4.0820364    4.0820364     68.01906 
     305            0   -15.240188 -3.0689405e-10 -2.6055076e-10 -2.3088561e-10 -4.2924579e-10 2.0430547e-13 1.2054023e-12 3.3301791e-12    4.0820364    4.0820364    4.0820364     68.01906 
     306            0   -15.240188 3.518004e-10 3.4486763e-10 3.5083335e-10 3.5970021e-10 -1.4301383e-13 -1.4505688e-12 3.2055528e-11    4.0820364    4.0820364    4.0820364     68.01906 
     307            0   -15.240188 -3.1409242e-10 -2.7331986e-10 -2.2957806e-10 -4.3937934e-10 4.0861094e-14 -2.8704918e-11 3.0032904e-12    4.0820364    4.0820364    4.0820364     68.01906 
     308            0   -15.240188  4.34333e-10 4.0889697e-10 4.4328158e-10 4.5082045e-10 8.5808297e-13 -4.0861094e-13 3.3506097e-12    4.0820364    4.0820364    4.0820364     68.01906 
     309            0   -15.240188 -8.9869209e-10 -7.2401772e-10 -8.9994516e-10 -1.0721134e-09 -2.9603862e-11 -3.0318932e-11 1.8387492e-13    4.0820364    4.0820364    4.0820364     68.01906 
     310            0   -15.240188 7.6623404e-10 7.8796533e-10 7.6073141e-10 7.5000538e-10            0 -3.8818039e-13 2.9031807e-11    4.0820364    4.0820364    4.0820364     68.01906 
     311            0   -15.240188 2.7082052e-10 2.534818e-10 2.7687477e-10 2.8210499e-10 -5.9738919e-11 1.532291e-12 2.8602766e-13    4.0820364    4.0820364    4.0820364     68.01906 
     312            0   -15.240188 -1.570428e-10 -4.9033313e-11 -2.1035291e-10 -2.1174219e-10 -6.0637863e-11 -6.0045377e-11 4.6990258e-13    4.0820364    4.0820364    4.0820364     68.01906 
     313            0   -15.240188 2.7103845e-10 2.5413557e-10 2.7687477e-10 2.8210499e-10 -5.941203e-11 1.6957354e-12 2.8602766e-13    4.0820364    4.0820364    4.0820364     68.01906 
     314            0   -15.240188 -9.5900987e-11 4.2985871e-11 -1.7933934e-10 -1.5134949e-10 -3.0543668e-11 -3.1973806e-11 2.6559711e-13    4.0820364    4.0820364    4.0820364     68.01906 
     315            0   -15.240188 4.2677369e-10 4.3623304e-10 4.4140197e-10 4.0268608e-10 4.9033313e-13 1.307555e-12 1.940902e-12    4.0820364    4.0820364    4.0820364     68.01906 
     316            0   -15.240188 -3.1164756e-10 -2.4009979e-10 -3.4662466e-10 -3.4821824e-10 -1.0010968e-12 -3.064582e-13 4.4947203e-13    4.0820364    4.0820364    4.0820364     68.01906 
     317            0   -15.240188 4.3423765e-10 4.3688681e-10 4.5942171e-10 4.0640444e-10 5.5162477e-13 4.9033313e-13 -5.3119422e-13    4.0820364    4.0820364    4.0820364     68.01906 
     318            0   -15.240188 5.3677857e-11 2.040603e-10 -2.1942407e-11 -2.1084324e-11 1.2258328e-13 3.1258737e-12 7.3549969e-13    4.0820364    4.0820364    4.0820364     68.01906 
     319            0   -15.240188 -6.3755565e-10 -6.3784167e-10 -6.3714704e-10 -6.3767823e-10 2.4516656e-13 -1.0215273e-13 5.5162477e-13    4.0820364    4.0820364    4.0820364     68.01906 
     320            0   -15.240188 4.2838771e-10 4.4242349e-10 4.4070733e-10 4.020323e-10 1.4505688e-12 1.5731521e-12 6.7420805e-13    4.0820364    4.0820364    4.0820364     68.01906 
     321            0   -15.240188 4.296544e-11 -2.0573561e-11 -2.2718768e-11 1.7218865e-10 8.1722188e-14 -1.2258328e-13 6.7420805e-13    4.0820364    4.0820364    4.0820364     68.01906 
     322            0   -15.240188 -8.9560026e-10 -9.0033334e-10 -8.5507968e-10 -9.3138777e-10 2.0430547e-14 4.0861094e-13 9.8066625e-13    4.0820364    4.0820364    4.0820364     68.01906 
     323            0   -15.240188 5.0545173e-10 5.2894686e-10 5.2473817e-10 4.6267016e-10 3.064582e-11 7.3549969e-13 4.4947203e-13    4.0820364    4.0820364    4.0820364     68.01906 
     324            0   -15.240188 4.4861395e-10 4.4597841e-10 4.4585582e-10 4.5400761e-10 1.4914299e-12 3.922665e-12 2.7376933e-12    4.0820364    4.0820364    4.0820364     68.01906 
     325            0   -15.240188 -8.9560026e-10 -9.0033334e-10 -8.5507968e-10 -9.3138777e-10 2.0430547e-14 2.4516656e-13 3.2688875e-13    4.0820364    4.0820364    4.0820364     68.01906 
     326            0   -15.240188 5.0566966e-10 5.2927375e-10 5.2506505e-10 4.6267016e-10 3.0482376e-11 5.7205531e-13 4.4947203e-13    4.0820364    4.0820364    4.0820364     68.01906 
     327            0   -15.240188 4.4861395e-10 4.4597841e-10 4.4585582e-10 4.5400761e-10 1.4914299e-12 3.7592206e-12 2.7376933e-12    4.0820364    4.0820364    4.0820364     68.01906 
     328            0   -15.240188 -8.9560026e-10 -9.0033334e-10 -8.5507968e-10 -9.3138777e-10 2.0430547e-14 5.7205531e-13 6.537775e-13    4.0820364    4.0820364    4.0820364     68.01906 
     329            0   -15.240188 5.0566966e-10 5.2927375e-10 5.2506505e-10 4.6267016e-10 3.0482376e-11 5.7205531e-13 4.4947203e-13    4.0820364    4.0820364    4.0820364     68.01906 
     330            0   -15.240188 4.4861395e-10 4.4597841e-10 4.4585582e-10 4.5400761e-10 1.3279855e-12 4.0861094e-12 3.064582e-12    4.0820364    4.0820364    4.0820364     68.01906 
     331            0   -15.240188 -1.0488498e-09 -1.0089421e-09 -1.0083701e-09 -1.1292372e-09 2.0430547e-13 -1.2258328e-13 4.9033313e-13    4.0820364    4.0820364    4.0820364     68.01906 
     332            0   -15.240188 6.3079313e-10 6.4219338e-10 6.4196864e-10 6.0821738e-10 3.0216779e-11 5.9105572e-11 5.941203e-11    4.0820364    4.0820364    4.0820364     68.01906 
     333            0   -15.240188 2.4130519e-10 3.186961e-10 2.0973999e-10 1.9547947e-10 6.1291641e-14 1.2666939e-12 4.0861094e-14    4.0820364    4.0820364    4.0820364     68.01906 
     334            0   -15.240188 -2.6922694e-10 -3.1538635e-10 -3.1552937e-10 -1.7676509e-10 -3.2688875e-13 -1.6344438e-13 2.4516656e-13    4.0820364    4.0820364    4.0820364     68.01906 
     335            0   -15.240188 4.4324752e-10 4.4499774e-10 4.4324071e-10 4.4150412e-10 1.4914299e-12 2.3086518e-12 1.0419579e-12    4.0820364    4.0820364    4.0820364     68.01906 
     336            0   -15.240188 -2.5811272e-10 -3.0263769e-10 -3.027807e-10 -1.6891976e-10            0 -4.9033313e-13 5.7205531e-13    4.0820364    4.0820364    4.0820364     68.01906 
     337            0   -15.240188 -2.6944486e-10 -3.1538635e-10 -3.1618314e-10 -1.7676509e-10 -3.2688875e-13 -1.6344438e-13 2.4516656e-13    4.0820364    4.0820364    4.0820364     68.01906 
     338            0   -15.240188 4.4324752e-10 4.4499774e-10 4.4324071e-10 4.4150412e-10 1.4914299e-12 2.1452074e-12 1.0419579e-12    4.0820364    4.0820364    4.0820364     68.01906 
     339            0   -15.240188 -6.5467644e-10 -6.5316458e-10 -6.53042e-10 -6.5782275e-10 1.2258328e-13 -2.2473602e-13 1.0215273e-13    4.0820364    4.0820364    4.0820364     68.01906 
     340            0   -15.240188 6.9250701e-10 6.7553603e-10 7.024022e-10 6.9958279e-10 3.0359793e-11 -2.9849029e-11 -2.2473602e-13    4.0820364    4.0820364    4.0820364     68.01906 
     341            0   -15.240188 -6.5467644e-10 -6.5316458e-10 -6.53042e-10 -6.5782275e-10 1.2258328e-13 -2.2473602e-13 1.0215273e-13    4.0820364    4.0820364    4.0820364     68.01906 
     342            0   -15.240188 6.9509488e-10 7.0495602e-10 6.8123616e-10 6.9909245e-10 3.0318932e-11 -8.3765242e-13 3.138132e-11    4.0820364    4.0820364    4.0820364     68.01906 
     343            0   -15.240188 -6.5467644e-10 -6.5316458e-10 -6.53042e-10 -6.5782275e-10 1.2258328e-13 -2.2473602e-13 -2.2473602e-13    4.0820364    4.0820364    4.0820364     68.01906 
     344            0   -15.240188 6.7770848e-10 6.7972429e-10 6.521022e-10 7.0129895e-10 -2.0839158e-12 1.6344438e-13 3.0073765e-11    4.0820364    4.0820364    4.0820364     68.01906 
     345            0   -15.240188 4.6370531e-11 -2.9849029e-11 -3.064582e-11 1.9960644e-10 -2.0430547e-13 -5.5162477e-13 8.1722188e-13    4.0820364    4.0820364    4.0820364     68.01906 
     346            0   -15.240188 5.639512e-11 -1.8407923e-11 -2.0512269e-11 2.0810555e-10 1.2258328e-13 -5.9248586e-13 4.9033313e-13    4.0820364    4.0820364    4.0820364     68.01906 
     347            0   -15.240188 3.6686452e-11 7.5327426e-11 7.3713413e-11 -3.8981483e-11 2.4516656e-13 2.1860685e-12 2.9419988e-12    4.0820364    4.0820364    4.0820364     68.01906 
     348            0   -15.240188 -2.7685434e-10 -3.0412912e-10 -1.0683133e-10 -4.1960257e-10 3.2688875e-13 6.3334695e-13 2.4312351e-12    4.0820364    4.0820364    4.0820364     68.01906 
     349            0   -15.240188 4.4319304e-10 4.4499774e-10 4.4324071e-10 4.4134067e-10 1.4914299e-12 2.1452074e-12 7.1506914e-13    4.0820364    4.0820364    4.0820364     68.01906 
     350            0   -15.240188 -1.0485774e-09 -1.0089421e-09 -1.0083701e-09 -1.12842e-09 -1.2258328e-13 3.6774984e-13 1.6344438e-13    4.0820364    4.0820364    4.0820364     68.01906 
     351            0   -15.240188 6.3026194e-10 6.4219338e-10 6.4196864e-10 6.066238e-10 2.9726446e-11 5.8778683e-11 5.941203e-11    4.0820364    4.0820364    4.0820364     68.01906 
     352            0   -15.240188 6.9860893e-10 6.8430074e-10 6.8317706e-10  7.28349e-10 -3.064582e-13            0            0    4.0820364    4.0820364    4.0820364     68.01906 
     353            0   -15.240188 -3.7302092e-10 -3.6877137e-10 -4.1008194e-10 -3.4020947e-10 4.2904148e-13 1.2258328e-13 3.8818039e-13    4.0820364    4.0820364    4.0820364     68.01906 
     354            0   -15.240188 2.4695764e-10 3.2261877e-10 2.182391e-10 2.0001505e-10 6.1291641e-14 3.2280264e-12 1.3484161e-12    4.0820364    4.0820364    4.0820364     68.01906 
     355            0   -15.240188 -2.5741808e-10 -3.0263769e-10 -3.027807e-10 -1.6683585e-10            0 -4.9033313e-13 5.7205531e-13    4.0820364    4.0820364    4.0820364     68.01906 
     356            0   -15.240188 -2.5741808e-10 -3.0263769e-10 -3.027807e-10 -1.6683585e-10            0 -4.9033313e-13 5.7205531e-13    4.0820364    4.0820364    4.0820364     68.01906 
     357            0   -15.240188 4.1474691e-10 4.3986967e-10 4.3809222e-10 3.6627884e-10 1.4505688e-12 1.5731521e-12 1.4097077e-12    4.0820364    4.0820364    4.0820364     68.01906 
     358            0   -15.240188 -2.5741808e-10 -3.0263769e-10 -3.027807e-10 -1.6683585e-10            0 -4.9033313e-13 5.7205531e-13    4.0820364    4.0820364    4.0820364     68.01906 
     359            0   -15.240188 4.4526334e-10 4.4597841e-10 4.4585582e-10 4.4395578e-10 1.4914299e-12 3.6162068e-12 2.3495129e-12    4.0820364    4.0820364    4.0820364     68.01906 
     360            0   -15.240188 4.1725987e-11 -3.2586722e-11 -3.4772791e-11 1.9253747e-10 3.6774984e-13 4.0861094e-13 2.2473602e-13    4.0820364    4.0820364    4.0820364     68.01906 
     361            0   -15.240188 -3.1103465e-10 -3.475236e-10 -3.4703327e-10 -2.3854707e-10 -2.6559711e-13 1.0419579e-12 5.1076367e-13    4.0820364    4.0820364    4.0820364     68.01906 
     362            0   -15.240188 -2.4993369e-11 1.3484161e-11 1.2217467e-11 -1.0068174e-10 4.0861094e-13 1.6344438e-12 2.839846e-12    4.0820364    4.0820364    4.0820364     68.01906 
     363            0   -15.240188 4.3071679e-10 4.4340416e-10 4.4332244e-10 4.0542377e-10 1.4505688e-12 3.3710402e-12 2.3086518e-12    4.0820364    4.0820364    4.0820364     68.01906 
     364            0   -15.240188 4.333319e-11 -2.0573561e-11 -2.2718768e-11 1.732919e-10 8.1722188e-14 4.0861094e-14 6.7420805e-13    4.0820364    4.0820364    4.0820364     68.01906 
     365            0   -15.240188 -1.0494219e-09 -1.0089421e-09 -1.0083701e-09 -1.1309534e-09 -1.2258328e-13 4.0861094e-14 1.6344438e-13    4.0820364    4.0820364    4.0820364     68.01906 
     366            0   -15.240188 6.100357e-10 6.4415471e-10 6.1115938e-10 5.7479301e-10 2.950171e-11 5.9718489e-11 2.9011377e-11    4.0820364    4.0820364    4.0820364     68.01906 
     367            0   -15.240188 4.4549488e-10 4.4597841e-10 4.4585582e-10 4.4465042e-10 1.4914299e-12 3.9430955e-12 2.3495129e-12    4.0820364    4.0820364    4.0820364     68.01906 
     368            0   -15.240188 -2.5721378e-10 -3.0263769e-10 -3.027807e-10 -1.6622293e-10            0 -4.9033313e-13 5.7205531e-13    4.0820364    4.0820364    4.0820364     68.01906 
     369            0   -15.240188 4.4549488e-10 4.4597841e-10 4.4585582e-10 4.4465042e-10 1.3279855e-12 3.7796512e-12 2.3495129e-12    4.0820364    4.0820364    4.0820364     68.01906 
     370            0   -15.240188  4.59483e-11 -2.9849029e-11 -3.064582e-11 1.9833975e-10 1.2258328e-13 -5.5162477e-13 8.1722188e-13    4.0820364    4.0820364    4.0820364     68.01906 
     371            0   -15.240188 -2.6911797e-10 -3.1538635e-10 -3.1618314e-10 -1.7578443e-10            0 -1.6344438e-13 2.4516656e-13    4.0820364    4.0820364    4.0820364     68.01906 
     372            0   -15.240188 1.9102561e-11 2.1901546e-11 5.5142046e-11 -1.9735908e-11 7.3549969e-13 2.8807071e-12 5.5060324e-11    4.0820364    4.0820364    4.0820364     68.01906 
     373            0   -15.240188 -1.2835832e-10 -8.8076088e-11 -6.9443429e-11 -2.2755543e-10 2.2494032e-11 6.0842169e-11 4.6990258e-11    4.0820364    4.0820364    4.0820364     68.01906 
     374            0   -15.240188 -1.0068174e-10 -5.7389406e-11 -2.9276974e-11 -2.1537883e-10 2.3474698e-11 6.0351835e-11 6.0413127e-11    4.0820364    4.0820364    4.0820364     68.01906 
     375            0   -15.240188 6.8524054e-11 1.058098e-10 1.0250005e-10 -2.7376933e-12 3.1279167e-11 6.1005613e-11 6.0127099e-11    4.0820364    4.0820364    4.0820364     68.01906 
     376            0   -15.240188 2.4424719e-10 3.216381e-10 2.1333577e-10 1.9776769e-10 3.8818039e-13 3.8818039e-12 2.0021936e-12    4.0820364    4.0820364    4.0820364     68.01906 
     377            0   -15.240188 -1.3072826e-10 -1.1839502e-10 -2.3542119e-10 -3.8368567e-11 4.0861094e-13 -4.9033313e-13 3.2688875e-13    4.0820364    4.0820364    4.0820364     68.01906 
     378            0   -15.240188 5.6299777e-11 -1.8407923e-11 -2.018538e-11 2.0749263e-10 1.2258328e-13 -1.0215273e-13 8.1722188e-13    4.0820364    4.0820364    4.0820364     68.01906 
     379            0   -15.240188 2.222503e-10 2.4673971e-10 2.8275877e-10 1.3725241e-10 2.8745779e-11 4.9360201e-11 -2.8990946e-11    4.0820364    4.0820364    4.0820364     68.01906 
     380            0   -15.240188 -8.1047979e-11 -2.2534893e-11 -1.2258328e-11 -2.0835072e-10 2.3965031e-11 5.2465644e-11 -2.3045657e-11    4.0820364    4.0820364    4.0820364     68.01906 
     381            0   -15.240188 2.3105586e-10 2.2714682e-10 3.1495731e-10 1.5106346e-10 3.0216779e-11 6.051528e-11 -3.0788834e-11    4.0820364    4.0820364    4.0820364     68.01906 
     382            0   -15.240188 4.6331032e-10 4.9754511e-10 5.2222521e-10 3.7016065e-10 3.0359793e-11 5.5264629e-11 1.0623884e-12    4.0820364    4.0820364    4.0820364     68.01906 
     383            0   -15.240188 -4.0098353e-11 -6.987247e-11 5.0463451e-11 -1.0088604e-10 -5.3119422e-13 5.9248586e-13 3.8205123e-12    4.0820364    4.0820364    4.0820364     68.01906 
     384            0   -15.240188 -7.7445393e-11 -1.5866363e-10 -3.8164262e-11 -3.550829e-11 -4.0861094e-14 -1.2258328e-12 -2.8602766e-13    4.0820364    4.0820364    4.0820364     68.01906 
     385            0   -15.240188 -3.1105508e-10 -3.475236e-10 -3.4754403e-10 -2.3809759e-10 -2.6559711e-13 1.0419579e-12 2.4516656e-13    4.0820364    4.0820364    4.0820364     68.01906 
     386            0   -15.240188 1.3470541e-11 -4.3537495e-11 -4.5907439e-11 1.2985656e-10 3.6774984e-13 8.7851352e-13 3.473193e-13    4.0820364    4.0820364    4.0820364     68.01906 
     387            0   -15.240188 6.1715915e-10 6.8184907e-10 5.6459816e-10 6.0503022e-10 6.3334695e-13 -1.6344438e-12 -1.7774576e-12    4.0820364    4.0820364    4.0820364     68.01906 
     388            0   -15.240188 -6.5535065e-10 -6.6928429e-10 -7.5715607e-10 -5.396116e-10 1.2462634e-12 5.3119422e-13 1.2462634e-12    4.0820364    4.0820364    4.0820364     68.01906 
     389            0   -15.240188 6.1715915e-10 6.8184907e-10 5.6459816e-10 6.0503022e-10 6.3334695e-13 -1.6344438e-12 -1.7774576e-12    4.0820364    4.0820364    4.0820364     68.01906 
     390            0   -15.240188 -6.5556858e-10 -6.6928429e-10 -7.5780984e-10 -5.396116e-10 1.2462634e-12 5.3119422e-13 1.2462634e-12    4.0820364    4.0820364    4.0820364     68.01906 
     391            0   -15.240188 6.3882234e-10 6.8297275e-10 5.9495796e-10 6.3853631e-10 -8.5808297e-13 -3.2688875e-13 2.690703e-11    4.0820364    4.0820364    4.0820364     68.01906 
     392            0   -15.240188 -6.5556858e-10 -6.6928429e-10 -7.5780984e-10 -5.396116e-10 1.2462634e-12 5.3119422e-13 1.2462634e-12    4.0820364    4.0820364    4.0820364     68.01906 
     393            0   -15.240188 6.3690187e-10 6.8184907e-10 5.9407944e-10 6.3477709e-10 3.8818039e-13 -1.307555e-12 2.9072668e-11    4.0820364    4.0820364    4.0820364     68.01906 
     394            0   -15.240188 5.6184004e-11 -1.8407923e-11 -2.05327e-11 2.0749263e-10 1.2258328e-13 -7.1506914e-13 2.8602766e-13    4.0820364    4.0820364    4.0820364     68.01906 
     395            0   -15.240188 -3.6676918e-10 -4.0828405e-10 -3.6488957e-10 -3.2713392e-10 -1.2258328e-13 5.7205531e-13 -1.2258328e-13    4.0820364    4.0820364    4.0820364     68.01906 
     396            0   -15.240188 -7.8323907e-11 -1.894116e-10 -3.88589e-11 -6.7012194e-12 -3.2688875e-13 -8.1722188e-14 -1.0215273e-13    4.0820364    4.0820364    4.0820364     68.01906 
     397            0   -15.240188 4.5073873e-10 4.4179015e-10 4.6079055e-10 4.4963548e-10 3.473193e-13 -9.8066625e-13 -9.3980516e-13    4.0820364    4.0820364    4.0820364     68.01906 
     398            0   -15.240188 -1.0700839e-10 -1.116938e-10 -1.3034689e-10 -7.8984494e-11 6.1291641e-14 -8.7851352e-13 -7.3549969e-13    4.0820364    4.0820364    4.0820364     68.01906 
     399            0   -15.240188 -1.0700839e-10 -1.116938e-10 -1.3034689e-10 -7.8984494e-11 6.1291641e-14 -8.7851352e-13 -7.3549969e-13    4.0820364    4.0820364    4.0820364     68.01906 
     400            0   -15.240188 2.4510527e-10 3.1646917e-10 2.1527667e-10 2.0356997e-10 -1.2258328e-13 -2.2473602e-12 -3.2688875e-13    4.0820364    4.0820364    4.0820364     68.01906 
     401            0   -15.240188 -3.6655125e-10 -4.0828405e-10 -3.6488957e-10 -3.2648014e-10 -4.4947203e-13 6.9463859e-13 -1.2258328e-13    4.0820364    4.0820364    4.0820364     68.01906 
     402            0   -15.240188 3.0546392e-10 3.1789931e-10 3.0596787e-10 2.9252457e-10 -1.8387492e-13 -2.0634852e-12 -1.2258328e-12    4.0820364    4.0820364    4.0820364     68.01906 
[...]
    5003            0   -15.240188 1.6545629e-06 1.926339e-06 2.653957e-06 3.8339257e-07   0.44494745 -6.2885223e-11 1.0174412e-11    4.0820364    4.0820364    4.0820364     68.01906 
    5004            0   -15.240188 1.6547208e-06 1.9265744e-06 2.6540872e-06 3.8350081e-07   0.44494745 1.6753048e-11 -4.633648e-11    4.0820364    4.0820364    4.0820364     68.01906 
    5005            0   -15.240188 1.6544524e-06 1.9262629e-06 2.6538651e-06 3.8322942e-07   0.44494745 2.7050044e-11 7.7636078e-12    4.0820364    4.0820364    4.0820364     68.01906 
    5006            0   -15.240188 1.6548409e-06 1.9266481e-06 2.6541903e-06 3.8368432e-07   0.44494745            0 6.9463859e-13    4.0820364    4.0820364    4.0820364     68.01906 
    5007            0   -15.240188 1.6548409e-06 1.9266481e-06 2.6541903e-06 3.8368432e-07   0.44494745            0 6.9463859e-13    4.0820364    4.0820364    4.0820364     68.01906 
Loop time of 0.000298018 on 1 procs for 7 steps with 4 atoms

83.2% CPU use with 1 MPI tasks x no OpenMP threads

Minimization stats:
  Stopping criterion = quadratic factors are zero
  Energy initial, next-to-last, final = 
        -15.2401876837     -15.2401876839     -15.2401876839
  Force two-norm initial, final = 6.10856e-05 2.99225e-15
  Force max component initial, final = 3.27968e-05 1.46064e-15
  Final line search alpha, max atom move = 1 1.46064e-15
  Iterations, force evaluations = 7 14

MPI task timing breakdown:
Section |  min time  |  avg time  |  max time  |%varavg| %total
---------------------------------------------------------------
Pair    | 0.00013724 | 0.00013724 | 0.00013724 |   0.0 | 46.05
Neigh   | 0          | 0          | 0          |   0.0 |  0.00
Comm    | 2.4651e-05 | 2.4651e-05 | 2.4651e-05 |   0.0 |  8.27
Output  | 0.00010759 | 0.00010759 | 0.00010759 |   0.0 | 36.10
Modify  | 0          | 0          | 0          |   0.0 |  0.00
Other   |            | 2.854e-05  |            |       |  9.58

Nlocal:    4 ave 4 max 4 min
Histogram: 1 0 0 0 0 0 0 0 0 0
Nghost:    360 ave 360 max 360 min
Histogram: 1 0 0 0 0 0 0 0 0 0
Neighs:    268 ave 268 max 268 min
Histogram: 1 0 0 0 0 0 0 0 0 0

Total # of neighbors = 268
Ave neighs/atom = 67
Neighbor list builds = 0
Dangerous builds = 0

# Obtain new stress tensor

variable tmp equal pxx
variable pxx1 equal ${tmp}
variable pxx1 equal 1.92664811275203e-06
variable tmp equal pyy
variable pyy1 equal ${tmp}
variable pyy1 equal 2.65419032719055e-06
variable tmp equal pzz
variable pzz1 equal ${tmp}
variable pzz1 equal 3.83684322007321e-07
variable tmp equal pxy
variable pxy1 equal ${tmp}
variable pxy1 equal 0.444947450197373
variable tmp equal pxz
variable pxz1 equal ${tmp}
variable pxz1 equal 0
variable tmp equal pyz
variable pyz1 equal ${tmp}
variable pyz1 equal 6.94638593950805e-13

# Compute elastic constant from pressure tensor

variable C1neg equal ${d1}
variable C1neg equal 0.000192639552990094
variable C2neg equal ${d2}
variable C2neg equal 0.000265393727443688
variable C3neg equal ${d3}
variable C3neg equal 3.83353551453319e-05
variable C4neg equal ${d4}
variable C4neg equal 0
variable C5neg equal ${d5}
variable C5neg equal 6.94638593950805e-11
variable C6neg equal ${d6}
variable C6neg equal 44.4947450167687

# Reset box and simulation parameters

clear
box tilt large
read_restart restart.equil
  restoring atom style atomic from restart
  triclinic box = (-0.0410182 -0.0410182 -0.0410182) to (4.04102 4.04102 4.04102) with tilt (0 0 0)
  1 by 1 by 1 MPI processor grid
  restoring pair style smatb from restart
  4 atoms
  read_restart CPU = 0.000164861 secs
include potential.mod
# NOTE: This script can be modified for different pair styles
# See in.elastic for more info.

### Choose potential ###
pair_style	smatb
#pair_coeff 1 1 2.7662 10.7960 3.1976 0.1993 2.2318 4.8745 5.6286
#pair_coeff  id1 id2 atomDiameter p q A Xi cut_start cut_end
pair_coeff 1 1 2.885 10.295370 4.02006 0.205932 1.80239 4.08000612 5.770

# Setup neighbor style
#neighbor 1.0 nsq
#neigh_modify once no every 1 delay 0 check yes

# Setup minimization style
min_style	     cg
min_modify	     dmax ${dmax} line quadratic
min_modify	     dmax 0.01 line quadratic

# Setup output
thermo		1
thermo_style custom step temp pe press pxx pyy pzz pxy pxz pyz lx ly lz vol
thermo_modify norm no

# Positive deformation

variable delta equal ${up}*${len0}
variable delta equal 1e-06*${len0}
variable delta equal 1e-06*4.08203642042074
variable deltaxy equal ${up}*xy
variable deltaxy equal 1e-06*xy
variable deltaxz equal ${up}*xz
variable deltaxz equal 1e-06*xz
variable deltayz equal ${up}*yz
variable deltayz equal 1e-06*yz
if "${dir} == 1" then    "change_box all x delta 0 ${delta} xy delta ${deltaxy} xz delta ${deltaxz} remap units box"
if "${dir} == 2" then    "change_box all y delta 0 ${delta} yz delta ${deltayz} remap units box"
if "${dir} == 3" then    "change_box all z delta 0 ${delta} remap units box"
if "${dir} == 4" then    "change_box all yz delta ${delta} remap units box"
if "${dir} == 5" then    "change_box all xz delta ${delta} remap units box"
if "${dir} == 6" then    "change_box all xy delta ${delta} remap units box"
change_box all xy delta ${delta} remap units box
change_box all xy delta 4.08203642042074e-06 remap units box
  triclinic box = (-0.0410182 -0.0410182 -0.0410182) to (4.04102 4.04102 4.04102) with tilt (4.08204e-06 0 0)

# Relax atoms positions

minimize ${etol} ${ftol} ${maxiter} ${maxeval}
minimize 0 ${ftol} ${maxiter} ${maxeval}
minimize 0 1e-25 ${maxiter} ${maxeval}
minimize 0 1e-25 5000 ${maxeval}
minimize 0 1e-25 5000 10000
WARNING: Using 'neigh_modify every 1 delay 0 check yes' setting during minimization (src/min.cpp:168)
Neighbor list info ...
  update every 1 steps, delay 0 steps, check yes
  max neighbors/atom: 2000, page size: 100000
  master list distance cutoff = 7.77
  ghost atom cutoff = 7.77
  binsize = 3.885, bins = 2 2 2
  1 neighbor lists, perpetual/occasional/extra = 1 0 0
  (1) pair smatb, perpetual
      attributes: half, newton on
      pair build: half/bin/newton/tri
      stencil: half/bin/3d/newton/tri
      bin: standard
Per MPI rank memory allocation (min/avg/max) = 3.834 | 3.834 | 3.834 Mbytes
Step Temp PotEng Press Pxx Pyy Pzz Pxy Pxz Pyz Lx Ly Lz Volume 
    5000            0   -15.240188 4.972754e-05 4.8944294e-05 5.7430263e-05 4.2808064e-05  -0.44496824 -4.0484097e-07 -3.6259412e-06    4.0820364    4.0820364    4.0820364     68.01906 
    5001            0   -15.240188 5.9523207e-06 6.1528275e-06 8.1532627e-06 3.5508718e-06  -0.44494631 3.5864276e-07 9.442819e-08    4.0820364    4.0820364    4.0820364     68.01906 
    5002            0   -15.240188 1.654372e-06 1.926166e-06 2.6537122e-06 3.8323791e-07  -0.44494745 -3.1871653e-12 8.703413e-12    4.0820364    4.0820364    4.0820364     68.01906 
    5003            0   -15.240188 1.6549367e-06 1.9267667e-06  2.65432e-06 3.8372351e-07  -0.44494745 -2.2963935e-11 -7.4775802e-12    4.0820364    4.0820364    4.0820364     68.01906 
    5004            0   -15.240188 1.654411e-06 1.926304e-06 2.6537275e-06 3.8320143e-07  -0.44494745 -5.753242e-11 -3.0931848e-11    4.0820364    4.0820364    4.0820364     68.01906 
    5005            0   -15.240188 1.6548154e-06 1.926596e-06 2.6542341e-06 3.8361617e-07  -0.44494745 -2.4598378e-11 -1.5118605e-12    4.0820364    4.0820364    4.0820364     68.01906 
    5006            0   -15.240188 1.6545667e-06 1.9263177e-06  2.65397e-06 3.8341243e-07  -0.44494745 -1.2748661e-11 2.0348825e-11    4.0820364    4.0820364    4.0820364     68.01906 
    5007            0   -15.240188 1.654875e-06 1.9267029e-06 2.6542769e-06 3.8364522e-07  -0.44494745 2.9379126e-11 -3.2688875e-13    4.0820364    4.0820364    4.0820364     68.01906 
    5008            0   -15.240188 1.654875e-06 1.9267029e-06 2.6542769e-06 3.8364522e-07  -0.44494745 2.9379126e-11 -3.2688875e-13    4.0820364    4.0820364    4.0820364     68.01906 
    5009            0   -15.240188 1.6547342e-06 1.9265712e-06 2.6541151e-06 3.8351646e-07  -0.44494745 2.0839158e-11 -2.8194155e-12    4.0820364    4.0820364    4.0820364     68.01906 
    5010            0   -15.240188 1.6547342e-06 1.9265712e-06 2.6541151e-06 3.8351646e-07  -0.44494745 2.0839158e-11 -2.8194155e-12    4.0820364    4.0820364    4.0820364     68.01906 
Loop time of 0.000404231 on 1 procs for 10 steps with 4 atoms

87.1% CPU use with 1 MPI tasks x no OpenMP threads

Minimization stats:
  Stopping criterion = quadratic factors are zero
  Energy initial, next-to-last, final = 
        -15.2401876837     -15.2401876839     -15.2401876839
  Force two-norm initial, final = 6.1086e-05 3.18549e-15
  Force max component initial, final = 3.2797e-05 2.13024e-15
  Final line search alpha, max atom move = 1 2.13024e-15
  Iterations, force evaluations = 10 20

MPI task timing breakdown:
Section |  min time  |  avg time  |  max time  |%varavg| %total
---------------------------------------------------------------
Pair    | 0.00019046 | 0.00019046 | 0.00019046 |   0.0 | 47.12
Neigh   | 0          | 0          | 0          |   0.0 |  0.00
Comm    | 3.4523e-05 | 3.4523e-05 | 3.4523e-05 |   0.0 |  8.54
Output  | 0.00014732 | 0.00014732 | 0.00014732 |   0.0 | 36.44
Modify  | 0          | 0          | 0          |   0.0 |  0.00
Other   |            | 3.193e-05  |            |       |  7.90

Nlocal:    4 ave 4 max 4 min
Histogram: 1 0 0 0 0 0 0 0 0 0
Nghost:    360 ave 360 max 360 min
Histogram: 1 0 0 0 0 0 0 0 0 0
Neighs:    268 ave 268 max 268 min
Histogram: 1 0 0 0 0 0 0 0 0 0

Total # of neighbors = 268
Ave neighs/atom = 67
Neighbor list builds = 0
Dangerous builds = 0

# Obtain new stress tensor

variable tmp equal pe
variable e1 equal ${tmp}
variable e1 equal -15.2401876839493
variable tmp equal press
variable p1 equal ${tmp}
variable p1 equal 1.65473423914434e-06
variable tmp equal pxx
variable pxx1 equal ${tmp}
variable pxx1 equal 1.92657119174302e-06
variable tmp equal pyy
variable pyy1 equal ${tmp}
variable pyy1 equal 2.65411506105584e-06
variable tmp equal pzz
variable pzz1 equal ${tmp}
variable pzz1 equal 3.83516464634148e-07
variable tmp equal pxy
variable pxy1 equal ${tmp}
variable pxy1 equal -0.444947450200744
variable tmp equal pxz
variable pxz1 equal ${tmp}
variable pxz1 equal 2.08391578185242e-11
variable tmp equal pyz
variable pyz1 equal ${tmp}
variable pyz1 equal -2.81941546956503e-12

# Compute elastic constant from pressure tensor

variable C1pos equal ${d1}
variable C1pos equal -0.000192631860889193
variable C2pos equal ${d2}
variable C2pos equal -0.000265386200830217
variable C3pos equal ${d3}
variable C3pos equal -3.83185694080146e-05
variable C4pos equal ${d4}
variable C4pos equal 3.51405406351584e-10
variable C5pos equal ${d5}
variable C5pos equal -2.1533796412475e-09
variable C6pos equal ${d6}
variable C6pos equal 44.494745023043

# Combine positive and negative

variable C1${dir} equal 0.5*(${C1neg}+${C1pos})
variable C16 equal 0.5*(${C1neg}+${C1pos})
variable C16 equal 0.5*(0.000192639552990094+${C1pos})
variable C16 equal 0.5*(0.000192639552990094+-0.000192631860889193)
variable C2${dir} equal 0.5*(${C2neg}+${C2pos})
variable C26 equal 0.5*(${C2neg}+${C2pos})
variable C26 equal 0.5*(0.000265393727443688+${C2pos})
variable C26 equal 0.5*(0.000265393727443688+-0.000265386200830217)
variable C3${dir} equal 0.5*(${C3neg}+${C3pos})
variable C36 equal 0.5*(${C3neg}+${C3pos})
variable C36 equal 0.5*(3.83353551453319e-05+${C3pos})
variable C36 equal 0.5*(3.83353551453319e-05+-3.83185694080146e-05)
variable C4${dir} equal 0.5*(${C4neg}+${C4pos})
variable C46 equal 0.5*(${C4neg}+${C4pos})
variable C46 equal 0.5*(0+${C4pos})
variable C46 equal 0.5*(0+3.51405406351584e-10)
variable C5${dir} equal 0.5*(${C5neg}+${C5pos})
variable C56 equal 0.5*(${C5neg}+${C5pos})
variable C56 equal 0.5*(6.94638593950805e-11+${C5pos})
variable C56 equal 0.5*(6.94638593950805e-11+-2.1533796412475e-09)
variable C6${dir} equal 0.5*(${C6neg}+${C6pos})
variable C66 equal 0.5*(${C6neg}+${C6pos})
variable C66 equal 0.5*(44.4947450167687+${C6pos})
variable C66 equal 0.5*(44.4947450167687+44.494745023043)

# Delete dir to make sure it is not reused

variable dir delete

# Output final values

variable C11all equal ${C11}
variable C11all equal 186.428199571709
variable C22all equal ${C22}
variable C22all equal 186.428199578774
variable C33all equal ${C33}
variable C33all equal 186.428199587357

variable C12all equal 0.5*(${C12}+${C21})
variable C12all equal 0.5*(153.965926631465+${C21})
variable C12all equal 0.5*(153.965926631465+153.965926632904)
variable C13all equal 0.5*(${C13}+${C31})
variable C13all equal 0.5*(153.96592664334+${C31})
variable C13all equal 0.5*(153.96592664334+153.965926624748)
variable C23all equal 0.5*(${C23}+${C32})
variable C23all equal 0.5*(153.965926641004+${C32})
variable C23all equal 0.5*(153.965926641004+153.965926637237)

variable C44all equal ${C44}
variable C44all equal 44.4947450186198
variable C55all equal ${C55}
variable C55all equal 44.4947450227242
variable C66all equal ${C66}
variable C66all equal 44.4947450199058

variable C14all equal 0.5*(${C14}+${C41})
variable C14all equal 0.5*(4.65816468849591e-10+${C41})
variable C14all equal 0.5*(4.65816468849591e-10+8.78514476115544e-11)
variable C15all equal 0.5*(${C15}+${C51})
variable C15all equal 0.5*(-1.02214026045103e-08+${C51})
variable C15all equal 0.5*(-1.02214026045103e-08+2.69683492597558e-10)
variable C16all equal 0.5*(${C16}+${C61})
variable C16all equal 0.5*(3.84605045050277e-09+${C61})
variable C16all equal 0.5*(3.84605045050277e-09+-2.9011400678961e-10)

variable C24all equal 0.5*(${C24}+${C42})
variable C24all equal 0.5*(1.89799780501098e-09+${C42})
variable C24all equal 0.5*(1.89799780501098e-09+-2.69683220462673e-09)
variable C25all equal 0.5*(${C25}+${C52})
variable C25all equal 0.5*(-7.1445622442504e-09+${C52})
variable C25all equal 0.5*(-7.1445622442504e-09+1.61401163044108e-10)
variable C26all equal 0.5*(${C26}+${C62})
variable C26all equal 0.5*(3.76330673551974e-09+${C62})
variable C26all equal 0.5*(3.76330673551974e-09+3.9839790132295e-11)

variable C34all equal 0.5*(${C34}+${C43})
variable C34all equal 0.5*(2.08800189147713e-09+${C43})
variable C34all equal 0.5*(2.08800189147713e-09+1.14411160599813e-10)
variable C35all equal 0.5*(${C35}+${C53})
variable C35all equal 0.5*(-6.2966945489878e-09+${C53})
variable C35all equal 0.5*(-6.2966945489878e-09+1.979718021214e-09)
variable C36all equal 0.5*(${C36}+${C63})
variable C36all equal 0.5*(8.39286865865003e-09+${C63})
variable C36all equal 0.5*(8.39286865865003e-09+-9.398065049387e-11)

variable C45all equal 0.5*(${C45}+${C54})
variable C45all equal 0.5*(1.00109679716439e-10+${C54})
variable C45all equal 0.5*(1.00109679716439e-10+-8.1722187523624e-12)
variable C46all equal 0.5*(${C46}+${C64})
variable C46all equal 0.5*(1.75702703175792e-10+${C64})
variable C46all equal 0.5*(1.75702703175792e-10+1.5220757426275e-10)
variable C56all equal 0.5*(${C56}+${C65})
variable C56all equal 0.5*(-1.04195789092621e-09+${C65})
variable C56all equal 0.5*(-1.04195789092621e-09+-1.43013828166345e-10)

# Average moduli for cubic crystals

variable C11cubic equal (${C11all}+${C22all}+${C33all})/3.0
variable C11cubic equal (186.428199571709+${C22all}+${C33all})/3.0
variable C11cubic equal (186.428199571709+186.428199578774+${C33all})/3.0
variable C11cubic equal (186.428199571709+186.428199578774+186.428199587357)/3.0
variable C12cubic equal (${C12all}+${C13all}+${C23all})/3.0
variable C12cubic equal (153.965926632185+${C13all}+${C23all})/3.0
variable C12cubic equal (153.965926632185+153.965926634044+${C23all})/3.0
variable C12cubic equal (153.965926632185+153.965926634044+153.96592663912)/3.0
variable C44cubic equal (${C44all}+${C55all}+${C66all})/3.0
variable C44cubic equal (44.4947450186198+${C55all}+${C66all})/3.0
variable C44cubic equal (44.4947450186198+44.4947450227242+${C66all})/3.0
variable C44cubic equal (44.4947450186198+44.4947450227242+44.4947450199058)/3.0

variable bulkmodulus equal (${C11cubic}+2*${C12cubic})/3.0
variable bulkmodulus equal (186.42819957928+2*${C12cubic})/3.0
variable bulkmodulus equal (186.42819957928+2*153.965926635116)/3.0
variable shearmodulus1 equal ${C44cubic}
variable shearmodulus1 equal 44.4947450204166
variable shearmodulus2 equal (${C11cubic}-${C12cubic})/2.0
variable shearmodulus2 equal (186.42819957928-${C12cubic})/2.0
variable shearmodulus2 equal (186.42819957928-153.965926635116)/2.0
variable poissonratio equal 1.0/(1.0+${C11cubic}/${C12cubic})
variable poissonratio equal 1.0/(1.0+186.42819957928/${C12cubic})
variable poissonratio equal 1.0/(1.0+186.42819957928/153.965926635116)

# For Stillinger-Weber silicon, the analytical results
# are known to be (E. R. Cowley, 1988):
#               C11 = 151.4 GPa
#               C12 = 76.4 GPa
#               C44 = 56.4 GPa

print "========================================="
=========================================
print "Components of the Elastic Constant Tensor"
Components of the Elastic Constant Tensor
print "========================================="
=========================================

print "Elastic Constant C11all = ${C11all} ${cunits}"
Elastic Constant C11all = 186.428199571709 GPa
print "Elastic Constant C22all = ${C22all} ${cunits}"
Elastic Constant C22all = 186.428199578774 GPa
print "Elastic Constant C33all = ${C33all} ${cunits}"
Elastic Constant C33all = 186.428199587357 GPa

print "Elastic Constant C12all = ${C12all} ${cunits}"
Elastic Constant C12all = 153.965926632185 GPa
print "Elastic Constant C13all = ${C13all} ${cunits}"
Elastic Constant C13all = 153.965926634044 GPa
print "Elastic Constant C23all = ${C23all} ${cunits}"
Elastic Constant C23all = 153.96592663912 GPa

print "Elastic Constant C44all = ${C44all} ${cunits}"
Elastic Constant C44all = 44.4947450186198 GPa
print "Elastic Constant C55all = ${C55all} ${cunits}"
Elastic Constant C55all = 44.4947450227242 GPa
print "Elastic Constant C66all = ${C66all} ${cunits}"
Elastic Constant C66all = 44.4947450199058 GPa

print "Elastic Constant C14all = ${C14all} ${cunits}"
Elastic Constant C14all = 2.76833958230573e-10 GPa
print "Elastic Constant C15all = ${C15all} ${cunits}"
Elastic Constant C15all = -4.97585955595637e-09 GPa
print "Elastic Constant C16all = ${C16all} ${cunits}"
Elastic Constant C16all = 1.77796822185658e-09 GPa

print "Elastic Constant C24all = ${C24all} ${cunits}"
Elastic Constant C24all = -3.99417199807875e-10 GPa
print "Elastic Constant C25all = ${C25all} ${cunits}"
Elastic Constant C25all = -3.49158054060315e-09 GPa
print "Elastic Constant C26all = ${C26all} ${cunits}"
Elastic Constant C26all = 1.90157326282602e-09 GPa

print "Elastic Constant C34all = ${C34all} ${cunits}"
Elastic Constant C34all = 1.10120652603847e-09 GPa
print "Elastic Constant C35all = ${C35all} ${cunits}"
Elastic Constant C35all = -2.1584882638869e-09 GPa
print "Elastic Constant C36all = ${C36all} ${cunits}"
Elastic Constant C36all = 4.14944400407808e-09 GPa

print "Elastic Constant C45all = ${C45all} ${cunits}"
Elastic Constant C45all = 4.59687304820383e-11 GPa
print "Elastic Constant C46all = ${C46all} ${cunits}"
Elastic Constant C46all = 1.63955138719271e-10 GPa
print "Elastic Constant C56all = ${C56all} ${cunits}"
Elastic Constant C56all = -5.92485859546277e-10 GPa

print "========================================="
=========================================
print "Average properties for a cubic crystal"
Average properties for a cubic crystal
print "========================================="
=========================================

print "Bulk Modulus = ${bulkmodulus} ${cunits}"
Bulk Modulus = 164.786684283171 GPa
print "Shear Modulus 1 = ${shearmodulus1} ${cunits}"
Shear Modulus 1 = 44.4947450204166 GPa
print "Shear Modulus 2 = ${shearmodulus2} ${cunits}"
Shear Modulus 2 = 16.231136472082 GPa
print "Poisson Ratio = ${poissonratio}"
Poisson Ratio = 0.452316637620654
Total wall time: 0:00:00
